 ******************************************************************
 *************  stfc/ccp5  program  library  package  ** D ********
 *************  daresbury laboratory general purpose  *** L *******
 **         **  classical molecular dynamics program  **** \ ******
 ** DL_POLY **  authors:   i.t.todorov   &   w.smith  ***** P *****
 **         **  version:   4.09.1  /  november 2018   ****** O ****
 *************  execution on           1 process(es)  ******* L ***
 *************  contributors' list:                   ******** Y **
 *************  ------------------------------------  *************
 *************  i.j.bush, h.a.boateng, r.davidchak,   *************
 *************  m.a.seaton, a.v.brukhno, a.m.elena,   *************
 *************  s.l.daraszewicz,g.khara,s.t.murphy    *************
 ******************************************************************

 ******************************************************************
 **** birthday: Dec 16 2022 @ 15:29:49                         ****
 ****  machine: chip                                           ****
 ****  builder: Alistar OTTOCHIAN                              ****
 **** compiler: gfortran v8.5.0 20210514 (Red Hat 8.5.0-15)    ****
 ****      MPI: v3.1                                           ****
 **** MPI libs: Open MPI v3.0.0, package: Open MPI alistar@chi ****
 **** MPI libs: p Distribution, ident: 3.0.0, repo rev: v3.0.0 ****
 **** MPI libs: , Sep 12, 2017                                 ****
 **** executed: 2026-01-30  @  15:23:58.524  (GMT+01:00)       ****
 ******************************************************************

 ******************************************************************
 ****  ~~~~~~~~~~~~~~~~~~~~~~~~~~~~~~~~~~~~~~~~~~~~~~~~~~~~~~  ****
 ****  Please do cite `J. Mater. Chem.', 16, 1911-1918 (2006)  ****
 ****  ^^^^^^^^^^^^^^^^^^^^^^^^^^^^^^^^^^^^^^^^^^^^^^^^^^^^^^  ****
 ****  when publishing research data obtained using DL_POLY_4  ****
 ****  ^^^^^^^^^^^^^^^^^^^^^^^^^^^^^^^^^^^^^^^^^^^^^^^^^^^^^^  ****
 ******************************************************************

 HISTORY file is HISTORY.dlpolyhist

 I/O read method: parallel by using MPI-I/O (assumed)
 I/O readers (assumed)                   1
 I/O read batch size (assumed)     2000000
 I/O read buffer size (assumed)      20000
 I/O parallel read error checking off (assumed)

 I/O write method: parallel by using MPI-I/O (assumed)
 I/O write type: data sorting on (assumed)
 I/O writers (assumed)                   1
 I/O write batch size (assumed)    2000000
 I/O write buffer size (assumed)     20000
 I/O parallel write error checking off (assumed)

 *** warning - DD cutoff check: rcut=Max(rcut,rvdw,rmet,rkim,rcbnd,2.0_wp*rcter+1.0e-6_wp) ! ***

 warning issued     40

 *** warning - tentative cutoff reset to   6.500 Angstroms !!! ***



 node/domain decomposition (x,y,z):      1     1     1

 pure cutoff driven limit on largest possible decomposition:    18 nodes/domains (3,3,2)

 pure cutoff driven limit on largest balanced decomposition:     1 nodes/domains (1,1,1)

 cutoffs driven limit on largest possible decomposition:    18 nodes/domains (3,3,2)

 cutoffs driven limit on largest balanced decomposition:     1 nodes/domains (1,1,1)

 link-cell decomposition 1 (x,y,z):      3     3     2

 warning issued    100

 *** warning - primary link cell algorithm has a link cell dimension that is < 3 !!! ***
 *** DL_POLY_4 RUNNING IN LOW EFFICIENCY MODE !!! ***


 link-cell decomposition 2 (x,y,z):     10    10     6

 *** pre-scanning stage (set_bounds) DONE ***

 time elapsed since job start:        0.010 sec

 **********************************************************************************************************************************
 **********************************************************************************************************************************
 **********************************************************************************************************************************
 ************************     Silicalite simulation : Sauer model sans shell + Benzene                     ************************
 **********************************************************************************************************************************
 **********************************************************************************************************************************
 **********************************************************************************************************************************


 SIMULATION CONTROL PARAMETERS

 warning issued     35

 *** warning - DL_POLY_2/Classic directive 'delr - Verlet shell strip cutoff' defaulted to ***
 *** DL_POLY_4 directive 'rpad - real space cutoff padding option' ; rpad=Max(rpad,delr/4) !!! ***

 cutoff padding (Angs)               1.2500E-01

 vdw cutoff (Angs)                   6.5000E+00

 vdw force-shifting option on

 real space cutoff (Angs)            6.5000E+00

 Electrostatics : Smooth Particle Mesh Ewald
 Ewald sum precision                 1.0000E-06
 Ewald convergence parameter (A^-1)  5.0333E-01
 Ewald kmax1 kmax2 kmax3   (x2)    20   20   14
 DaFT adjusted kmax values (x2)    20   20   15
 B-spline interpolation order            8
 k-space evaluation interval (steps)     1

 density variation allowance (%)     1.0000E+01

 radomisation seeds supplied
 (seed1,seed2,seed3)               14    1 2022

 selected number of timesteps        10000

 simulation temperature (K)          3.0000E+02

 simulation pressure (katms)         0.0000E+00

 Integration : Velocity Verlet
 Ensemble : NVT Nose-Hoover
 thermostat relaxation time (ps)     1.0000E+00

 trajectory file option on
 trajectory file start                   0
 trajectory file interval             1000
 trajectory file info key                0

 data printing interval (steps)         10

 statistics file interval               10

 no strict option on
 *** Warning *** It skips printing inessential information in OUTPUT such as many warnings, FIELD
 *** wArning *** digested information and full iteration cycles information from CGM based routines!
 *** waRning *** However, it also assumes some, deemed safe, defaults for some specified as well as
 *** warNing *** unspecified by the user options, that may or may not be needed for the simulation to run!
 *** warnIng *** The defaults are deemed to deliver safer passage as well as optimal performance without
 *** warniNg *** sacrificing on accuracy!  While it may, by chance, help to pass previously failing runs
 *** warninG *** it may as well lead to a run failure without warnings!  Beware, avoid usage if uncertain!

 warning issued     36

 *** warning - DL_POLY_2/Classic directive 'mult(iple timestep)' defaulted to ***
 *** DL_POLY_4 directive 'infrequent k-space SPME evaluation' !!! ***


 clean start requested

 Extended Coulombic eXclusion : NO

 fixed simulation timestep (ps)      1.0000E-03

 data dumping interval (steps)        1000

 subcelling threshold density        5.0000E+01

 allocated job run time   (s)        1.0000E+05

 allocated job close time (s)        1.0000E+02


 SYSTEM SPECIFICATION

 energy units = kJ/mol


 number of molecular types               2


 molecular species type                  1

 name of species:             ZEOLITE ZSM5 (SILICALITE)               

 number of molecules                     1

 number of atoms/sites                 288

 atomic characteristics:

               site    name             mass         charge      repeat      freeze

                  1    Si            28.085500       4.000000        96         0
                 97    O             15.999400      -2.000000       192         0


 molecular species type                  2

 name of species:             BENZENE                                 

 number of molecules                     1

 number of atoms/sites                  12

 atomic characteristics:

               site    name             mass         charge      repeat      freeze

                  1    C             12.000000      -0.075000         6         0
                  7    H              1.008000       0.075000         6         0


 number of rigid bodies                  1

 rigid body details:

                  unit      size            indices

                     1        12         1         2         3         4         5         6         7         8         9        10
                                            11        12


 total number of molecules               2

 total number of sites                 300


 number of specified vdw potentials                5

       pair     atom 1  atom 2     key                              parameters

          1     Si      Si         buck             0.000000            0.300170            0.000000            0.000000            0.000000            0.000000            0.000000
          2     O       O          buck             0.000000            0.300170            0.000000            0.000000            0.000000            0.000000            0.000000
          3     Si      O          buck        149643.890000            0.300170            0.000000            0.000000            0.000000            0.000000            0.000000
          4     C       O          12-6       1335000.000000          904.000000            0.000000            0.000000            0.000000            0.000000            0.000000
          5     H       O          12-6        159900.000000          255.400000            0.000000            0.000000            0.000000            0.000000            0.000000

 warning issued    120

 *** warning - unspecified atom-atom interactions set to zero !!! ***



 number of specified three-body potentials         1

    triplet     atom 1  atom 2  atom 3     key                      parameters

          1     O       Si      O          shrm       17.750400     109.466667       0.327690       0.327690       2.000000

 configuration file name: 

          Diffusion in Zeolites. ZSM5 (Silicate) Crystal Structure, Si(96)O(192) +


 selected image convention               2


 simulation cell vectors

       20.3183600000        0.0000000000        0.0000000000
        0.0000000000       20.1714600000        0.0000000000
        0.0000000000        0.0000000000       13.5858629500


 system volume            5568.17932579    

 *** all reading and connectivity checks DONE ***

 time elapsed since job start:        0.011 sec

 *** initialisation and haloing DONE ***

 time elapsed since job start:        0.012 sec

 //==============================================================\\
 ||                                                              ||
 ||           SUMMARY  OF  TOPOLOGICAL  DECOMPOSITION            ||
 ||                                                              ||
 ||--------------------------------------------------------------||
 ||  INTERACTION  OR  TYPE  |  GRAND TOTAL | Fully/Partly FROZEN ||
 ||-------------------------+--------------+---------------------||
 ||  all particles/sites    |         300  |  F            0     ||
 ||  free particles         |         288  |  F            0     ||
 ||  core-shell units       |           0  |  P            0     ||
 ||  constraint bond units  |           0  |  F            0     ||
 ||  PMF units              |           0  |  P         NONE     ||
 ||  rigid body units       |           1  |  F            0     ||
 ||  tethered atom units    |           0  |  F            0     ||
 ||  chemical bond units    |           0  |  F            0     ||
 ||  bond angle units       |           0  |  F            0     ||
 ||  dihedral angle units   |           0  |  F            0     ||
 ||  inversion angle units  |           0  |  F            0     ||
 \\==============================================================//


 *** bookkeeping DONE ***

 time elapsed since job start:        0.012 sec


 degrees of freedom break-down list
 ----------------------------------
 free particles                 864
 centre of mass                  -3
 non-periodicity                  0
 frozen free particles            0
 shell-pseudo                     0
 constrained                      0
 RB translational                 3
 RB rotational                    3
 ----------------------------------
 total (real)                   867

 *** temperature setting DONE ***

 time elapsed since job start:        0.013 sec


 sample of starting configuration on node zero

        i       x(i)        y(i)        z(i)       vx(i)       vy(i)       vz(i)


        1  1.4730E+00 -1.0837E+00 -4.4827E+00  4.5933E+00  1.5145E+00  4.0501E-01
       16  2.4713E+00  8.7049E+00 -6.4092E+00  5.2716E+00 -1.3794E+00 -3.6215E+00
       31 -6.2741E+00  2.6468E+00 -4.4810E+00 -4.4461E+00 -9.0610E-01 -3.4616E+00
       46 -3.7398E+00  6.5486E+00 -2.4718E+00  3.0051E+00  1.5488E+00  2.3605E+00
       61  7.7145E+00 -1.1333E+00  5.1512E-01 -3.9739E-01  1.0674E+00  2.5929E+00
       76  8.5453E+00 -6.5882E+00  2.2894E+00  5.3385E+00  3.0843E+00 -2.3282E-01
       91 -8.5965E+00 -2.5947E+00  2.1618E+00 -7.9262E-01 -2.5392E+00  2.9632E-01
      106 -5.9340E+00  8.8895E+00 -4.2166E-01  1.3664E+00 -4.6389E+00 -7.2297E-01
      121  2.6693E+00  2.9078E+00 -3.2592E+00 -2.9935E+00 -3.1727E+00 -1.9608E+00
      136  8.5363E+00  7.0068E+00 -1.0459E+00 -7.7038E+00 -5.2814E+00  1.2331E-01
      151 -1.4608E+00  1.0934E+00 -4.6261E+00  3.7387E+00 -7.2527E+00  7.8482E+00
      166 -3.7273E+00 -7.5298E+00 -1.7592E+00 -2.6794E+00 -6.6618E-01  1.5703E+00
      181 -9.9001E+00  2.8966E+00 -2.6548E+00  1.6815E+00  3.7945E+00 -1.7753E+00
      196  7.4963E+00  9.1911E+00  3.3953E+00 -9.8249E-01  5.2305E+00 -1.9525E+00
      211 -7.6045E+00  1.0725E+00  3.6447E+00 -3.3357E-01 -3.0481E+00 -2.4005E+00
      226 -3.9899E+00  6.7687E+00  6.2443E+00  6.0013E+00 -2.7718E+00  3.7986E+00
      241  6.8526E+00 -1.1248E+00  4.5092E+00 -5.4497E+00  3.6348E+00 -2.4671E-02
      256  8.3321E+00 -9.9013E+00  1.1942E+00  3.3133E+00 -5.5282E+00 -3.0019E+00
      271 -6.0414E+00 -2.4904E+00  5.4357E+00 -1.9064E+00  8.1201E-01  3.0838E+00
      286 -6.0678E+00  5.1972E+00  6.1045E+00  2.0457E+00  1.2110E+00  2.9968E+00



 time elapsed since job start:        0.013 sec

 forces evaluated at (re)start for VV integration...

 ----------------------------------------------------------------------------------------------------------------------------------

          step     eng_tot    temp_tot     eng_cfg     eng_src     eng_cou     eng_bnd     eng_ang     eng_dih     eng_tet
      time(ps)      eng_pv    temp_rot     vir_cfg     vir_src     vir_cou     vir_bnd     vir_ang     vir_con     vir_tet
      cpu  (s)      volume    temp_shl     eng_shl     vir_shl       alpha        beta       gamma     vir_pmf       press

 ----------------------------------------------------------------------------------------------------------------------------------
             0 -1.1993E+06  3.0000E+02 -1.2004E+06  2.8031E+05 -1.4807E+06  0.0000E+00  2.8395E-03  0.0000E+00  0.0000E+00
       0.00000 -1.1936E+06  3.0000E+02 -1.4884E+04 -1.4943E+06  1.4798E+06  0.0000E+00 -2.7618E-02  0.0000E+00  0.0000E+00
         0.021  5.5682E+03  0.0000E+00  0.0000E+00  0.0000E+00  9.0000E+01  9.0000E+01  9.0000E+01  0.0000E+00  1.6717E+01

       rolling  0.0000E+00  0.0000E+00  0.0000E+00  0.0000E+00  0.0000E+00  0.0000E+00  0.0000E+00  0.0000E+00  0.0000E+00
      averages  0.0000E+00  0.0000E+00  0.0000E+00  0.0000E+00  0.0000E+00  0.0000E+00  0.0000E+00  0.0000E+00  0.0000E+00
                0.0000E+00  0.0000E+00  0.0000E+00  0.0000E+00  0.0000E+00  0.0000E+00  0.0000E+00  0.0000E+00  0.0000E+00
 ----------------------------------------------------------------------------------------------------------------------------------
 ----------------------------------------------------------------------------------------------------------------------------------

          step     eng_tot    temp_tot     eng_cfg     eng_src     eng_cou     eng_bnd     eng_ang     eng_dih     eng_tet
      time(ps)      eng_pv    temp_rot     vir_cfg     vir_src     vir_cou     vir_bnd     vir_ang     vir_con     vir_tet
      cpu  (s)      volume    temp_shl     eng_shl     vir_shl       alpha        beta       gamma     vir_pmf       press

 ----------------------------------------------------------------------------------------------------------------------------------
             1 -1.1993E+06  3.1460E+02 -1.2004E+06  2.8045E+05 -1.4809E+06  0.0000E+00  2.8278E-03  0.0000E+00  0.0000E+00
       0.00100 -1.1934E+06  3.1122E+02 -1.5336E+04 -1.4949E+06  1.4800E+06  0.0000E+00 -2.7507E-02  0.0000E+00  0.0000E+00
         0.031  5.5682E+03  0.0000E+00  0.0000E+00  0.0000E+00  9.0000E+01  9.0000E+01  9.0000E+01  0.0000E+00  1.7263E+01

       rolling -1.1993E+06  3.1460E+02 -1.2004E+06  2.8045E+05 -1.4809E+06  0.0000E+00  2.8278E-03  0.0000E+00  0.0000E+00
      averages -1.1934E+06  3.1122E+02 -1.5336E+04 -1.4949E+06  1.4800E+06  0.0000E+00 -2.7507E-02  0.0000E+00  0.0000E+00
                5.5682E+03  0.0000E+00  0.0000E+00  0.0000E+00  9.0000E+01  9.0000E+01  9.0000E+01  0.0000E+00  1.7263E+01
 ----------------------------------------------------------------------------------------------------------------------------------

 cutoff padding reset from  0.12 Angs to  0.27 Angs

            10 -1.1993E+06  6.9722E+02 -1.2018E+06  2.8701E+05 -1.4888E+06  0.0000E+00  3.5707E-03  0.0000E+00  0.0000E+00
       0.01000 -1.1858E+06  3.9813E+02 -3.5389E+04 -1.5230E+06  1.4879E+06  0.0000E+00 -3.4577E-02  0.0000E+00  0.0000E+00
         0.088  5.5682E+03  0.0000E+00  0.0000E+00  0.0000E+00  9.0000E+01  9.0000E+01  9.0000E+01  0.0000E+00  3.9641E+01

       rolling -1.1993E+06  5.4898E+02 -1.2013E+06  2.8318E+05 -1.4845E+06  0.0000E+00  3.0522E-03  0.0000E+00  0.0000E+00
      averages -1.1901E+06  3.5741E+02 -2.3638E+04 -1.5068E+06  1.4836E+06  0.0000E+00 -2.9653E-02  0.0000E+00  0.0000E+00
                5.5682E+03  0.0000E+00  0.0000E+00  0.0000E+00  9.0000E+01  9.0000E+01  9.0000E+01  0.0000E+00  2.7065E+01
 ----------------------------------------------------------------------------------------------------------------------------------
            20 -1.1993E+06  7.9242E+02 -1.2022E+06  2.9294E+05 -1.4951E+06  0.0000E+00  3.9578E-03  0.0000E+00  0.0000E+00
       0.02000 -1.1790E+06  4.6420E+02 -5.5130E+04 -1.5490E+06  1.4942E+06  0.0000E+00 -3.8237E-02  0.0000E+00  0.0000E+00
         0.153  5.5682E+03  0.0000E+00  0.0000E+00  0.0000E+00  9.0000E+01  9.0000E+01  9.0000E+01  0.0000E+00  5.9679E+01

       rolling -1.1993E+06  6.5406E+02 -1.2017E+06  2.8689E+05 -1.4885E+06  0.0000E+00  3.5307E-03  0.0000E+00  0.0000E+00
      averages -1.1859E+06  3.9625E+02 -3.5460E+04 -1.5228E+06  1.4877E+06  0.0000E+00 -3.4192E-02  0.0000E+00  0.0000E+00
                5.5682E+03  0.0000E+00  0.0000E+00  0.0000E+00  9.0000E+01  9.0000E+01  9.0000E+01  0.0000E+00  3.9404E+01
 ----------------------------------------------------------------------------------------------------------------------------------
            30 -1.1993E+06  6.7791E+02 -1.2017E+06  2.9590E+05 -1.4976E+06  0.0000E+00  4.5276E-03  0.0000E+00  0.0000E+00
       0.03000 -1.1760E+06  5.2306E+02 -6.4892E+04 -1.5614E+06  1.4968E+06  0.0000E+00 -4.3761E-02  0.0000E+00  0.0000E+00
         0.218  5.5682E+03  0.0000E+00  0.0000E+00  0.0000E+00  9.0000E+01  9.0000E+01  9.0000E+01  0.0000E+00  6.8445E+01

       rolling -1.1993E+06  6.6758E+02 -1.2017E+06  2.8953E+05 -1.4912E+06  0.0000E+00  3.7180E-03  0.0000E+00  0.0000E+00
      averages -1.1830E+06  4.3036E+02 -4.4107E+04 -1.5341E+06  1.4904E+06  0.0000E+00 -3.5984E-02  0.0000E+00  0.0000E+00
                5.5682E+03  0.0000E+00  0.0000E+00  0.0000E+00  9.0000E+01  9.0000E+01  9.0000E+01  0.0000E+00  4.7983E+01
 ----------------------------------------------------------------------------------------------------------------------------------
            40 -1.1993E+06  6.9267E+02 -1.2018E+06  2.9537E+05 -1.4972E+06  0.0000E+00  5.3681E-03  0.0000E+00  0.0000E+00
       0.04000 -1.1766E+06  5.4284E+02 -6.3082E+04 -1.5592E+06  1.4963E+06  0.0000E+00 -5.1817E-02  0.0000E+00  0.0000E+00
         0.282  5.5682E+03  0.0000E+00  0.0000E+00  0.0000E+00  9.0000E+01  9.0000E+01  9.0000E+01  0.0000E+00  6.6773E+01

       rolling -1.1993E+06  6.7127E+02 -1.2017E+06  2.9114E+05 -1.4929E+06  0.0000E+00  4.0947E-03  0.0000E+00  0.0000E+00
      averages -1.1812E+06  4.5701E+02 -4.9335E+04 -1.5410E+06  1.4920E+06  0.0000E+00 -3.9598E-02  0.0000E+00  0.0000E+00
                5.5682E+03  0.0000E+00  0.0000E+00  0.0000E+00  9.0000E+01  9.0000E+01  9.0000E+01  0.0000E+00  5.3137E+01
 ----------------------------------------------------------------------------------------------------------------------------------
            50 -1.1993E+06  7.0765E+02 -1.2019E+06  2.9112E+05 -1.4930E+06  0.0000E+00  3.5128E-03  0.0000E+00  0.0000E+00
       0.05000 -1.1813E+06  5.6943E+02 -4.9082E+04 -1.5409E+06  1.4921E+06  0.0000E+00 -3.4014E-02  0.0000E+00  0.0000E+00
         0.348  5.5682E+03  0.0000E+00  0.0000E+00  0.0000E+00  9.0000E+01  9.0000E+01  9.0000E+01  0.0000E+00  5.3143E+01

       rolling -1.1993E+06  6.7951E+02 -1.2018E+06  2.9159E+05 -1.4933E+06  0.0000E+00  4.1472E-03  0.0000E+00  0.0000E+00
      averages -1.1808E+06  4.7613E+02 -5.0768E+04 -1.5429E+06  1.4925E+06  0.0000E+00 -4.0100E-02  0.0000E+00  0.0000E+00
                5.5682E+03  0.0000E+00  0.0000E+00  0.0000E+00  9.0000E+01  9.0000E+01  9.0000E+01  0.0000E+00  5.4600E+01
 ----------------------------------------------------------------------------------------------------------------------------------
            60 -1.1993E+06  6.5000E+02 -1.2017E+06  2.8821E+05 -1.4899E+06  0.0000E+00  3.3795E-03  0.0000E+00  0.0000E+00
       0.06000 -1.1847E+06  7.4981E+02 -3.9198E+04 -1.5279E+06  1.4890E+06  0.0000E+00 -3.2741E-02  0.0000E+00  0.0000E+00
         0.412  5.5682E+03  0.0000E+00  0.0000E+00  0.0000E+00  9.0000E+01  9.0000E+01  9.0000E+01  0.0000E+00  4.3035E+01

       rolling -1.1993E+06  6.7839E+02 -1.2017E+06  2.9119E+05 -1.4929E+06  0.0000E+00  4.0009E-03  0.0000E+00  0.0000E+00
      averages -1.1812E+06  5.0450E+02 -4.9400E+04 -1.5412E+06  1.4921E+06  0.0000E+00 -3.8697E-02  0.0000E+00  0.0000E+00
                5.5682E+03  0.0000E+00  0.0000E+00  0.0000E+00  9.0000E+01  9.0000E+01  9.0000E+01  0.0000E+00  5.3250E+01
 ----------------------------------------------------------------------------------------------------------------------------------
            70 -1.1993E+06  6.2189E+02 -1.2016E+06  2.8769E+05 -1.4892E+06  0.0000E+00  3.5282E-03  0.0000E+00  0.0000E+00
       0.07000 -1.1853E+06  1.3661E+03 -3.7709E+04 -1.5257E+06  1.4884E+06  0.0000E+00 -3.4121E-02  0.0000E+00  0.0000E+00
         0.477  5.5682E+03  0.0000E+00  0.0000E+00  0.0000E+00  9.0000E+01  9.0000E+01  9.0000E+01  0.0000E+00  4.1359E+01

       rolling -1.1993E+06  6.7341E+02 -1.2017E+06  2.9068E+05 -1.4924E+06  0.0000E+00  3.9400E-03  0.0000E+00  0.0000E+00
      averages -1.1818E+06  5.8154E+02 -4.7690E+04 -1.5389E+06  1.4915E+06  0.0000E+00 -3.8111E-02  0.0000E+00  0.0000E+00
                5.5682E+03  0.0000E+00  0.0000E+00  0.0000E+00  9.0000E+01  9.0000E+01  9.0000E+01  0.0000E+00  5.1535E+01
 ----------------------------------------------------------------------------------------------------------------------------------
 ----------------------------------------------------------------------------------------------------------------------------------

          step     eng_tot    temp_tot     eng_cfg     eng_src     eng_cou     eng_bnd     eng_ang     eng_dih     eng_tet
      time(ps)      eng_pv    temp_rot     vir_cfg     vir_src     vir_cou     vir_bnd     vir_ang     vir_con     vir_tet
      cpu  (s)      volume    temp_shl     eng_shl     vir_shl       alpha        beta       gamma     vir_pmf       press

 ----------------------------------------------------------------------------------------------------------------------------------
            80 -1.1993E+06  7.2247E+02 -1.2019E+06  2.8904E+05 -1.4910E+06  0.0000E+00  3.2335E-03  0.0000E+00  0.0000E+00
       0.08000 -1.1837E+06  1.9808E+03 -4.1701E+04 -1.5316E+06  1.4901E+06  0.0000E+00 -3.1315E-02  0.0000E+00  0.0000E+00
         0.540  5.5682E+03  0.0000E+00  0.0000E+00  0.0000E+00  9.0000E+01  9.0000E+01  9.0000E+01  0.0000E+00  4.5972E+01

       rolling -1.1993E+06  6.7486E+02 -1.2017E+06  2.9037E+05 -1.4921E+06  0.0000E+00  3.8543E-03  0.0000E+00  0.0000E+00
      averages -1.1821E+06  7.2836E+02 -4.6632E+04 -1.5376E+06  1.4912E+06  0.0000E+00 -3.7285E-02  0.0000E+00  0.0000E+00
                5.5682E+03  0.0000E+00  0.0000E+00  0.0000E+00  9.0000E+01  9.0000E+01  9.0000E+01  0.0000E+00  5.0504E+01
 ----------------------------------------------------------------------------------------------------------------------------------
            90 -1.1993E+06  7.6728E+02 -1.2021E+06  2.9178E+05 -1.4939E+06  0.0000E+00  4.2285E-03  0.0000E+00  0.0000E+00
       0.09000 -1.1806E+06  2.0299E+03 -5.0728E+04 -1.5436E+06  1.4930E+06  0.0000E+00 -4.0801E-02  0.0000E+00  0.0000E+00
         0.605  5.5682E+03  0.0000E+00  0.0000E+00  0.0000E+00  9.0000E+01  9.0000E+01  9.0000E+01  0.0000E+00  5.5144E+01

       rolling -1.1993E+06  6.7812E+02 -1.2018E+06  2.9042E+05 -1.4922E+06  0.0000E+00  3.8475E-03  0.0000E+00  0.0000E+00
      averages -1.1821E+06  8.7364E+02 -4.6714E+04 -1.5377E+06  1.4913E+06  0.0000E+00 -3.7213E-02  0.0000E+00  0.0000E+00
                5.5682E+03  0.0000E+00  0.0000E+00  0.0000E+00  9.0000E+01  9.0000E+01  9.0000E+01  0.0000E+00  5.0604E+01
 ----------------------------------------------------------------------------------------------------------------------------------
           100 -1.1993E+06  6.9353E+02 -1.2018E+06  2.9363E+05 -1.4955E+06  0.0000E+00  4.4562E-03  0.0000E+00  0.0000E+00
       0.10000 -1.1787E+06  1.8994E+03 -5.6915E+04 -1.5514E+06  1.4946E+06  0.0000E+00 -4.3041E-02  0.0000E+00  0.0000E+00
         0.668  5.5682E+03  0.0000E+00  0.0000E+00  0.0000E+00  9.0000E+01  9.0000E+01  9.0000E+01  0.0000E+00  6.0695E+01

       rolling -1.1993E+06  6.8344E+02 -1.2018E+06  2.9068E+05 -1.4925E+06  0.0000E+00  3.9065E-03  0.0000E+00  0.0000E+00
      averages -1.1818E+06  9.8282E+02 -4.7538E+04 -1.5389E+06  1.4916E+06  0.0000E+00 -3.7772E-02  0.0000E+00  0.0000E+00
                5.5682E+03  0.0000E+00  0.0000E+00  0.0000E+00  9.0000E+01  9.0000E+01  9.0000E+01  0.0000E+00  5.1448E+01
 ----------------------------------------------------------------------------------------------------------------------------------
           110 -1.1993E+06  6.2815E+02 -1.2016E+06  2.9297E+05 -1.4946E+06  0.0000E+00  3.9526E-03  0.0000E+00  0.0000E+00
       0.11000 -1.1796E+06  1.6490E+03 -5.4798E+04 -1.5483E+06  1.4937E+06  0.0000E+00 -3.8294E-02  0.0000E+00  0.0000E+00
         0.733  5.5682E+03  0.0000E+00  0.0000E+00  0.0000E+00  9.0000E+01  9.0000E+01  9.0000E+01  0.0000E+00  5.8162E+01

       rolling -1.1993E+06  6.9594E+02 -1.2018E+06  2.9169E+05 -1.4935E+06  0.0000E+00  4.0229E-03  0.0000E+00  0.0000E+00
      averages -1.1807E+06  1.1247E+03 -5.0745E+04 -1.5431E+06  1.4926E+06  0.0000E+00 -3.8888E-02  0.0000E+00  0.0000E+00
                5.5682E+03  0.0000E+00  0.0000E+00  0.0000E+00  9.0000E+01  9.0000E+01  9.0000E+01  0.0000E+00  5.4678E+01
 ----------------------------------------------------------------------------------------------------------------------------------
           120 -1.1993E+06  6.6172E+02 -1.2017E+06  2.9134E+05 -1.4931E+06  0.0000E+00  3.6652E-03  0.0000E+00  0.0000E+00
       0.12000 -1.1812E+06  1.1633E+03 -4.9829E+04 -1.5417E+06  1.4922E+06  0.0000E+00 -3.5428E-02  0.0000E+00  0.0000E+00
         0.796  5.5682E+03  0.0000E+00  0.0000E+00  0.0000E+00  9.0000E+01  9.0000E+01  9.0000E+01  0.0000E+00  5.3537E+01

       rolling -1.1993E+06  6.8721E+02 -1.2018E+06  2.9183E+05 -1.4936E+06  0.0000E+00  3.9927E-03  0.0000E+00  0.0000E+00
      averages -1.1806E+06  1.2218E+03 -5.1193E+04 -1.5437E+06  1.4928E+06  0.0000E+00 -3.8604E-02  0.0000E+00  0.0000E+00
                5.5682E+03  0.0000E+00  0.0000E+00  0.0000E+00  9.0000E+01  9.0000E+01  9.0000E+01  0.0000E+00  5.5054E+01
 ----------------------------------------------------------------------------------------------------------------------------------
           130 -1.1993E+06  6.6456E+02 -1.2017E+06  2.8913E+05 -1.4909E+06  0.0000E+00  3.6467E-03  0.0000E+00  0.0000E+00
       0.13000 -1.1835E+06  5.2062E+02 -4.2840E+04 -1.5322E+06  1.4900E+06  0.0000E+00 -3.5305E-02  0.0000E+00  0.0000E+00
         0.859  5.5682E+03  0.0000E+00  0.0000E+00  0.0000E+00  9.0000E+01  9.0000E+01  9.0000E+01  0.0000E+00  4.6716E+01

       rolling -1.1993E+06  6.8342E+02 -1.2018E+06  2.9136E+05 -1.4931E+06  0.0000E+00  3.9567E-03  0.0000E+00  0.0000E+00
      averages -1.1811E+06  1.2515E+03 -4.9672E+04 -1.5417E+06  1.4923E+06  0.0000E+00 -3.8255E-02  0.0000E+00  0.0000E+00
                5.5682E+03  0.0000E+00  0.0000E+00  0.0000E+00  9.0000E+01  9.0000E+01  9.0000E+01  0.0000E+00  5.3534E+01
 ----------------------------------------------------------------------------------------------------------------------------------
           140 -1.1993E+06  6.1728E+02 -1.2016E+06  2.8725E+05 -1.4888E+06  0.0000E+00  3.3777E-03  0.0000E+00  0.0000E+00
       0.14000 -1.1856E+06  4.2077E+02 -3.6782E+04 -1.5243E+06  1.4879E+06  0.0000E+00 -3.2706E-02  0.0000E+00  0.0000E+00
         0.925  5.5682E+03  0.0000E+00  0.0000E+00  0.0000E+00  9.0000E+01  9.0000E+01  9.0000E+01  0.0000E+00  4.0441E+01

       rolling -1.1993E+06  6.7695E+02 -1.2018E+06  2.9057E+05 -1.4923E+06  0.0000E+00  3.7782E-03  0.0000E+00  0.0000E+00
      averages -1.1820E+06  1.2393E+03 -4.7112E+04 -1.5383E+06  1.4915E+06  0.0000E+00 -3.6543E-02  0.0000E+00  0.0000E+00
                5.5682E+03  0.0000E+00  0.0000E+00  0.0000E+00  9.0000E+01  9.0000E+01  9.0000E+01  0.0000E+00  5.0977E+01
 ----------------------------------------------------------------------------------------------------------------------------------
           150 -1.1993E+06  6.6686E+02 -1.2018E+06  2.8868E+05 -1.4905E+06  0.0000E+00  4.0078E-03  0.0000E+00  0.0000E+00
       0.15000 -1.1842E+06  6.2503E+02 -4.0793E+04 -1.5301E+06  1.4896E+06  0.0000E+00 -3.8717E-02  0.0000E+00  0.0000E+00
         0.988  5.5682E+03  0.0000E+00  0.0000E+00  0.0000E+00  9.0000E+01  9.0000E+01  9.0000E+01  0.0000E+00  4.4721E+01

       rolling -1.1993E+06  6.7153E+02 -1.2018E+06  2.9002E+05 -1.4918E+06  0.0000E+00  3.7073E-03  0.0000E+00  0.0000E+00
      averages -1.1826E+06  1.2367E+03 -4.5296E+04 -1.5359E+06  1.4909E+06  0.0000E+00 -3.5860E-02  0.0000E+00  0.0000E+00
                5.5682E+03  0.0000E+00  0.0000E+00  0.0000E+00  9.0000E+01  9.0000E+01  9.0000E+01  0.0000E+00  4.9157E+01
 ----------------------------------------------------------------------------------------------------------------------------------
 ----------------------------------------------------------------------------------------------------------------------------------

          step     eng_tot    temp_tot     eng_cfg     eng_src     eng_cou     eng_bnd     eng_ang     eng_dih     eng_tet
      time(ps)      eng_pv    temp_rot     vir_cfg     vir_src     vir_cou     vir_bnd     vir_ang     vir_con     vir_tet
      cpu  (s)      volume    temp_shl     eng_shl     vir_shl       alpha        beta       gamma     vir_pmf       press

 ----------------------------------------------------------------------------------------------------------------------------------
           160 -1.1993E+06  6.9919E+02 -1.2019E+06  2.8941E+05 -1.4913E+06  0.0000E+00  3.8482E-03  0.0000E+00  0.0000E+00
       0.16000 -1.1833E+06  8.7898E+02 -4.3078E+04 -1.5332E+06  1.4904E+06  0.0000E+00 -3.7256E-02  0.0000E+00  0.0000E+00
         1.054  5.5682E+03  0.0000E+00  0.0000E+00  0.0000E+00  9.0000E+01  9.0000E+01  9.0000E+01  0.0000E+00  4.7186E+01

       rolling -1.1993E+06  6.7281E+02 -1.2018E+06  2.9002E+05 -1.4918E+06  0.0000E+00  3.7893E-03  0.0000E+00  0.0000E+00
      averages -1.1826E+06  1.2480E+03 -4.5282E+04 -1.5359E+06  1.4909E+06  0.0000E+00 -3.6645E-02  0.0000E+00  0.0000E+00
                5.5682E+03  0.0000E+00  0.0000E+00  0.0000E+00  9.0000E+01  9.0000E+01  9.0000E+01  0.0000E+00  4.9153E+01
 ----------------------------------------------------------------------------------------------------------------------------------
           170 -1.1993E+06  6.6064E+02 -1.2018E+06  2.9010E+05 -1.4919E+06  0.0000E+00  3.7340E-03  0.0000E+00  0.0000E+00
       0.17000 -1.1825E+06  1.2716E+03 -4.5783E+04 -1.5365E+06  1.4910E+06  0.0000E+00 -3.6179E-02  0.0000E+00  0.0000E+00
         1.119  5.5682E+03  0.0000E+00  0.0000E+00  0.0000E+00  9.0000E+01  9.0000E+01  9.0000E+01  0.0000E+00  4.9557E+01

       rolling -1.1993E+06  6.7477E+02 -1.2018E+06  2.9022E+05 -1.4920E+06  0.0000E+00  3.7948E-03  0.0000E+00  0.0000E+00
      averages -1.1824E+06  1.2517E+03 -4.5937E+04 -1.5368E+06  1.4911E+06  0.0000E+00 -3.6703E-02  0.0000E+00  0.0000E+00
                5.5682E+03  0.0000E+00  0.0000E+00  0.0000E+00  9.0000E+01  9.0000E+01  9.0000E+01  0.0000E+00  4.9809E+01
 ----------------------------------------------------------------------------------------------------------------------------------
           180 -1.1993E+06  6.4438E+02 -1.2017E+06  2.9085E+05 -1.4926E+06  0.0000E+00  4.5999E-03  0.0000E+00  0.0000E+00
       0.18000 -1.1818E+06  1.7497E+03 -4.8316E+04 -1.5398E+06  1.4917E+06  0.0000E+00 -4.4501E-02  0.0000E+00  0.0000E+00
         1.182  5.5682E+03  0.0000E+00  0.0000E+00  0.0000E+00  9.0000E+01  9.0000E+01  9.0000E+01  0.0000E+00  5.1916E+01

       rolling -1.1993E+06  6.7234E+02 -1.2018E+06  2.9046E+05 -1.4922E+06  0.0000E+00  3.9023E-03  0.0000E+00  0.0000E+00
      averages -1.1822E+06  1.2291E+03 -4.6777E+04 -1.5378E+06  1.4914E+06  0.0000E+00 -3.7743E-02  0.0000E+00  0.0000E+00
                5.5682E+03  0.0000E+00  0.0000E+00  0.0000E+00  9.0000E+01  9.0000E+01  9.0000E+01  0.0000E+00  5.0616E+01
 ----------------------------------------------------------------------------------------------------------------------------------
           190 -1.1993E+06  6.3463E+02 -1.2017E+06  2.9006E+05 -1.4918E+06  0.0000E+00  3.3994E-03  0.0000E+00  0.0000E+00
       0.19000 -1.1827E+06  2.3628E+03 -4.5522E+04 -1.5362E+06  1.4909E+06  0.0000E+00 -3.2949E-02  0.0000E+00  0.0000E+00
         1.247  5.5682E+03  0.0000E+00  0.0000E+00  0.0000E+00  9.0000E+01  9.0000E+01  9.0000E+01  0.0000E+00  4.9090E+01

       rolling -1.1993E+06  6.6616E+02 -1.2018E+06  2.9045E+05 -1.4922E+06  0.0000E+00  3.9212E-03  0.0000E+00  0.0000E+00
      averages -1.1822E+06  1.2333E+03 -4.6811E+04 -1.5379E+06  1.4913E+06  0.0000E+00 -3.7933E-02  0.0000E+00  0.0000E+00
                5.5682E+03  0.0000E+00  0.0000E+00  0.0000E+00  9.0000E+01  9.0000E+01  9.0000E+01  0.0000E+00  5.0606E+01
 ----------------------------------------------------------------------------------------------------------------------------------
           200 -1.1993E+06  6.8501E+02 -1.2019E+06  2.8933E+05 -1.4912E+06  0.0000E+00  3.6215E-03  0.0000E+00  0.0000E+00
       0.20000 -1.1835E+06  2.7297E+03 -4.2747E+04 -1.5330E+06  1.4903E+06  0.0000E+00 -3.5075E-02  0.0000E+00  0.0000E+00
         1.310  5.5682E+03  0.0000E+00  0.0000E+00  0.0000E+00  9.0000E+01  9.0000E+01  9.0000E+01  0.0000E+00  4.6716E+01

       rolling -1.1993E+06  6.5922E+02 -1.2017E+06  2.9008E+05 -1.4918E+06  0.0000E+00  3.8118E-03  0.0000E+00  0.0000E+00
      averages -1.1826E+06  1.2976E+03 -4.5627E+04 -1.5363E+06  1.4910E+06  0.0000E+00 -3.6895E-02  0.0000E+00  0.0000E+00
                5.5682E+03  0.0000E+00  0.0000E+00  0.0000E+00  9.0000E+01  9.0000E+01  9.0000E+01  0.0000E+00  4.9393E+01
 ----------------------------------------------------------------------------------------------------------------------------------
           210 -1.1993E+06  7.0749E+02 -1.2020E+06  2.8859E+05 -1.4906E+06  0.0000E+00  3.8889E-03  0.0000E+00  0.0000E+00
       0.21000 -1.1844E+06  2.6518E+03 -4.0123E+04 -1.5297E+06  1.4897E+06  0.0000E+00 -3.7520E-02  0.0000E+00  0.0000E+00
         1.375  5.5682E+03  0.0000E+00  0.0000E+00  0.0000E+00  9.0000E+01  9.0000E+01  9.0000E+01  0.0000E+00  4.4302E+01

       rolling -1.1993E+06  6.6134E+02 -1.2018E+06  2.8966E+05 -1.4914E+06  0.0000E+00  3.7855E-03  0.0000E+00  0.0000E+00
      averages -1.1831E+06  1.3914E+03 -4.4217E+04 -1.5345E+06  1.4905E+06  0.0000E+00 -3.6635E-02  0.0000E+00  0.0000E+00
                5.5682E+03  0.0000E+00  0.0000E+00  0.0000E+00  9.0000E+01  9.0000E+01  9.0000E+01  0.0000E+00  4.8023E+01
 ----------------------------------------------------------------------------------------------------------------------------------
           220 -1.1993E+06  6.5222E+02 -1.2018E+06  2.8772E+05 -1.4895E+06  0.0000E+00  3.1463E-03  0.0000E+00  0.0000E+00
       0.22000 -1.1854E+06  2.3533E+03 -3.7585E+04 -1.5261E+06  1.4886E+06  0.0000E+00 -3.0496E-02  0.0000E+00  0.0000E+00
         1.439  5.5682E+03  0.0000E+00  0.0000E+00  0.0000E+00  9.0000E+01  9.0000E+01  9.0000E+01  0.0000E+00  4.1429E+01

       rolling -1.1993E+06  6.6216E+02 -1.2018E+06  2.8926E+05 -1.4910E+06  0.0000E+00  3.7542E-03  0.0000E+00  0.0000E+00
      averages -1.1835E+06  1.5004E+03 -4.2849E+04 -1.5327E+06  1.4902E+06  0.0000E+00 -3.6326E-02  0.0000E+00  0.0000E+00
                5.5682E+03  0.0000E+00  0.0000E+00  0.0000E+00  9.0000E+01  9.0000E+01  9.0000E+01  0.0000E+00  4.6684E+01
 ----------------------------------------------------------------------------------------------------------------------------------
           230 -1.1993E+06  6.7800E+02 -1.2019E+06  2.9026E+05 -1.4922E+06  0.0000E+00  3.9507E-03  0.0000E+00  0.0000E+00
       0.23000 -1.1827E+06  2.0111E+03 -4.5374E+04 -1.5365E+06  1.4913E+06  0.0000E+00 -3.8221E-02  0.0000E+00  0.0000E+00
         1.504  5.5682E+03  0.0000E+00  0.0000E+00  0.0000E+00  9.0000E+01  9.0000E+01  9.0000E+01  0.0000E+00  4.9260E+01

       rolling -1.1993E+06  6.6401E+02 -1.2018E+06  2.8914E+05 -1.4909E+06  0.0000E+00  3.7308E-03  0.0000E+00  0.0000E+00
      averages -1.1837E+06  1.6376E+03 -4.2386E+04 -1.5322E+06  1.4901E+06  0.0000E+00 -3.6108E-02  0.0000E+00  0.0000E+00
                5.5682E+03  0.0000E+00  0.0000E+00  0.0000E+00  9.0000E+01  9.0000E+01  9.0000E+01  0.0000E+00  4.6239E+01
 ----------------------------------------------------------------------------------------------------------------------------------
 ----------------------------------------------------------------------------------------------------------------------------------

          step     eng_tot    temp_tot     eng_cfg     eng_src     eng_cou     eng_bnd     eng_ang     eng_dih     eng_tet
      time(ps)      eng_pv    temp_rot     vir_cfg     vir_src     vir_cou     vir_bnd     vir_ang     vir_con     vir_tet
      cpu  (s)      volume    temp_shl     eng_shl     vir_shl       alpha        beta       gamma     vir_pmf       press

 ----------------------------------------------------------------------------------------------------------------------------------
           240 -1.1993E+06  6.7437E+02 -1.2019E+06  2.9138E+05 -1.4933E+06  0.0000E+00  4.0152E-03  0.0000E+00  0.0000E+00
       0.24000 -1.1813E+06  1.5476E+03 -4.9739E+04 -1.5419E+06  1.4924E+06  0.0000E+00 -3.8784E-02  0.0000E+00  0.0000E+00
         1.567  5.5682E+03  0.0000E+00  0.0000E+00  0.0000E+00  9.0000E+01  9.0000E+01  9.0000E+01  0.0000E+00  5.3529E+01

       rolling -1.1993E+06  6.6698E+02 -1.2018E+06  2.8945E+05 -1.4913E+06  0.0000E+00  3.7996E-03  0.0000E+00  0.0000E+00
      averages -1.1834E+06  1.7734E+03 -4.3312E+04 -1.5335E+06  1.4904E+06  0.0000E+00 -3.6761E-02  0.0000E+00  0.0000E+00
                5.5682E+03  0.0000E+00  0.0000E+00  0.0000E+00  9.0000E+01  9.0000E+01  9.0000E+01  0.0000E+00  4.7166E+01
 ----------------------------------------------------------------------------------------------------------------------------------
           250 -1.1993E+06  6.3301E+02 -1.2018E+06  2.9215E+05 -1.4939E+06  0.0000E+00  4.0723E-03  0.0000E+00  0.0000E+00
       0.25000 -1.1804E+06  9.9693E+02 -5.2697E+04 -1.5454E+06  1.4930E+06  0.0000E+00 -3.9433E-02  0.0000E+00  0.0000E+00
         1.632  5.5682E+03  0.0000E+00  0.0000E+00  0.0000E+00  9.0000E+01  9.0000E+01  9.0000E+01  0.0000E+00  5.6152E+01

       rolling -1.1993E+06  6.6633E+02 -1.2018E+06  2.8984E+05 -1.4917E+06  0.0000E+00  3.8287E-03  0.0000E+00  0.0000E+00
      averages -1.1830E+06  1.8445E+03 -4.4591E+04 -1.5352E+06  1.4908E+06  0.0000E+00 -3.7047E-02  0.0000E+00  0.0000E+00
                5.5682E+03  0.0000E+00  0.0000E+00  0.0000E+00  9.0000E+01  9.0000E+01  9.0000E+01  0.0000E+00  4.8414E+01
 ----------------------------------------------------------------------------------------------------------------------------------
           260 -1.1993E+06  5.9765E+02 -1.2017E+06  2.9252E+05 -1.4942E+06  0.0000E+00  4.5884E-03  0.0000E+00  0.0000E+00
       0.26000 -1.1801E+06  6.3940E+02 -5.3778E+04 -1.5467E+06  1.4933E+06  0.0000E+00 -4.4255E-02  0.0000E+00  0.0000E+00
         1.696  5.5682E+03  0.0000E+00  0.0000E+00  0.0000E+00  9.0000E+01  9.0000E+01  9.0000E+01  0.0000E+00  5.6971E+01

       rolling -1.1993E+06  6.6153E+02 -1.2018E+06  2.9016E+05 -1.4920E+06  0.0000E+00  3.8634E-03  0.0000E+00  0.0000E+00
      averages -1.1826E+06  1.8464E+03 -4.5707E+04 -1.5366E+06  1.4911E+06  0.0000E+00 -3.7380E-02  0.0000E+00  0.0000E+00
                5.5682E+03  0.0000E+00  0.0000E+00  0.0000E+00  9.0000E+01  9.0000E+01  9.0000E+01  0.0000E+00  4.9475E+01
 ----------------------------------------------------------------------------------------------------------------------------------
           270 -1.1993E+06  6.5228E+02 -1.2019E+06  2.9009E+05 -1.4920E+06  0.0000E+00  3.7955E-03  0.0000E+00  0.0000E+00
       0.27000 -1.1827E+06  5.2798E+02 -4.5866E+04 -1.5366E+06  1.4911E+06  0.0000E+00 -3.6720E-02  0.0000E+00  0.0000E+00
         1.759  5.5682E+03  0.0000E+00  0.0000E+00  0.0000E+00  9.0000E+01  9.0000E+01  9.0000E+01  0.0000E+00  4.9598E+01

       rolling -1.1993E+06  6.5811E+02 -1.2018E+06  2.9033E+05 -1.4921E+06  0.0000E+00  3.9196E-03  0.0000E+00  0.0000E+00
      averages -1.1825E+06  1.7946E+03 -4.6277E+04 -1.5373E+06  1.4913E+06  0.0000E+00 -3.7910E-02  0.0000E+00  0.0000E+00
                5.5682E+03  0.0000E+00  0.0000E+00  0.0000E+00  9.0000E+01  9.0000E+01  9.0000E+01  0.0000E+00  5.0011E+01
 ----------------------------------------------------------------------------------------------------------------------------------
           280 -1.1993E+06  6.6297E+02 -1.2019E+06  2.8845E+05 -1.4904E+06  0.0000E+00  3.5751E-03  0.0000E+00  0.0000E+00
       0.28000 -1.1845E+06  5.5797E+02 -4.0188E+04 -1.5294E+06  1.4895E+06  0.0000E+00 -3.4660E-02  0.0000E+00  0.0000E+00
         1.825  5.5682E+03  0.0000E+00  0.0000E+00  0.0000E+00  9.0000E+01  9.0000E+01  9.0000E+01  0.0000E+00  4.4102E+01

       rolling -1.1993E+06  6.5673E+02 -1.2018E+06  2.9018E+05 -1.4920E+06  0.0000E+00  3.8431E-03  0.0000E+00  0.0000E+00
      averages -1.1826E+06  1.6950E+03 -4.5770E+04 -1.5367E+06  1.4911E+06  0.0000E+00 -3.7175E-02  0.0000E+00  0.0000E+00
                5.5682E+03  0.0000E+00  0.0000E+00  0.0000E+00  9.0000E+01  9.0000E+01  9.0000E+01  0.0000E+00  4.9507E+01
 ----------------------------------------------------------------------------------------------------------------------------------
           290 -1.1993E+06  6.4685E+02 -1.2019E+06  2.8809E+05 -1.4900E+06  0.0000E+00  3.8405E-03  0.0000E+00  0.0000E+00
       0.29000 -1.1851E+06  7.1568E+02 -3.8691E+04 -1.5275E+06  1.4891E+06  0.0000E+00 -3.7098E-02  0.0000E+00  0.0000E+00
         1.889  5.5682E+03  0.0000E+00  0.0000E+00  0.0000E+00  9.0000E+01  9.0000E+01  9.0000E+01  0.0000E+00  4.2516E+01

       rolling -1.1993E+06  6.5525E+02 -1.2018E+06  2.8994E+05 -1.4918E+06  0.0000E+00  3.8240E-03  0.0000E+00  0.0000E+00
      averages -1.1829E+06  1.5506E+03 -4.4974E+04 -1.5356E+06  1.4909E+06  0.0000E+00 -3.6988E-02  0.0000E+00  0.0000E+00
                5.5682E+03  0.0000E+00  0.0000E+00  0.0000E+00  9.0000E+01  9.0000E+01  9.0000E+01  0.0000E+00  4.8718E+01
 ----------------------------------------------------------------------------------------------------------------------------------
           300 -1.1993E+06  6.3096E+02 -1.2018E+06  2.8799E+05 -1.4898E+06  0.0000E+00  3.3537E-03  0.0000E+00  0.0000E+00
       0.30000 -1.1853E+06  1.0373E+03 -3.8234E+04 -1.5269E+06  1.4889E+06  0.0000E+00 -3.2462E-02  0.0000E+00  0.0000E+00
         1.954  5.5682E+03  0.0000E+00  0.0000E+00  0.0000E+00  9.0000E+01  9.0000E+01  9.0000E+01  0.0000E+00  4.1947E+01

       rolling -1.1993E+06  6.5428E+02 -1.2018E+06  2.8980E+05 -1.4916E+06  0.0000E+00  3.8479E-03  0.0000E+00  0.0000E+00
      averages -1.1831E+06  1.3774E+03 -4.4453E+04 -1.5350E+06  1.4908E+06  0.0000E+00 -3.7209E-02  0.0000E+00  0.0000E+00
                5.5682E+03  0.0000E+00  0.0000E+00  0.0000E+00  9.0000E+01  9.0000E+01  9.0000E+01  0.0000E+00  4.8204E+01
 ----------------------------------------------------------------------------------------------------------------------------------
           310 -1.1993E+06  6.4714E+02 -1.2019E+06  2.8977E+05 -1.4917E+06  0.0000E+00  3.5391E-03  0.0000E+00  0.0000E+00
       0.31000 -1.1833E+06  1.4567E+03 -4.4221E+04 -1.5348E+06  1.4908E+06  0.0000E+00 -3.4334E-02  0.0000E+00  0.0000E+00
         2.018  5.5682E+03  0.0000E+00  0.0000E+00  0.0000E+00  9.0000E+01  9.0000E+01  9.0000E+01  0.0000E+00  4.7925E+01

       rolling -1.1993E+06  6.4758E+02 -1.2018E+06  2.8977E+05 -1.4916E+06  0.0000E+00  3.7875E-03  0.0000E+00  0.0000E+00
      averages -1.1832E+06  1.2333E+03 -4.4391E+04 -1.5349E+06  1.4907E+06  0.0000E+00 -3.6636E-02  0.0000E+00  0.0000E+00
                5.5682E+03  0.0000E+00  0.0000E+00  0.0000E+00  9.0000E+01  9.0000E+01  9.0000E+01  0.0000E+00  4.8100E+01
 ----------------------------------------------------------------------------------------------------------------------------------
 ----------------------------------------------------------------------------------------------------------------------------------

          step     eng_tot    temp_tot     eng_cfg     eng_src     eng_cou     eng_bnd     eng_ang     eng_dih     eng_tet
      time(ps)      eng_pv    temp_rot     vir_cfg     vir_src     vir_cou     vir_bnd     vir_ang     vir_con     vir_tet
      cpu  (s)      volume    temp_shl     eng_shl     vir_shl       alpha        beta       gamma     vir_pmf       press

 ----------------------------------------------------------------------------------------------------------------------------------
           320 -1.1993E+06  6.3734E+02 -1.2019E+06  2.9228E+05 -1.4942E+06  0.0000E+00  4.4988E-03  0.0000E+00  0.0000E+00
       0.32000 -1.1806E+06  1.7214E+03 -5.2439E+04 -1.5456E+06  1.4933E+06  0.0000E+00 -4.3351E-02  0.0000E+00  0.0000E+00
         2.082  5.5682E+03  0.0000E+00  0.0000E+00  0.0000E+00  9.0000E+01  9.0000E+01  9.0000E+01  0.0000E+00  5.5911E+01

       rolling -1.1993E+06  6.4466E+02 -1.2018E+06  2.9010E+05 -1.4919E+06  0.0000E+00  3.8611E-03  0.0000E+00  0.0000E+00
      averages -1.1828E+06  1.1454E+03 -4.5476E+04 -1.5363E+06  1.4911E+06  0.0000E+00 -3.7346E-02  0.0000E+00  0.0000E+00
                5.5682E+03  0.0000E+00  0.0000E+00  0.0000E+00  9.0000E+01  9.0000E+01  9.0000E+01  0.0000E+00  4.9146E+01
 ----------------------------------------------------------------------------------------------------------------------------------
           330 -1.1993E+06  6.1398E+02 -1.2018E+06  2.9300E+05 -1.4948E+06  0.0000E+00  4.0197E-03  0.0000E+00  0.0000E+00
       0.33000 -1.1799E+06  1.8477E+03 -5.4911E+04 -1.5488E+06  1.4940E+06  0.0000E+00 -3.8893E-02  0.0000E+00  0.0000E+00
         2.147  5.5682E+03  0.0000E+00  0.0000E+00  0.0000E+00  9.0000E+01  9.0000E+01  9.0000E+01  0.0000E+00  5.8168E+01

       rolling -1.1993E+06  6.4154E+02 -1.2018E+06  2.9048E+05 -1.4923E+06  0.0000E+00  3.9377E-03  0.0000E+00  0.0000E+00
      averages -1.1824E+06  1.1085E+03 -4.6730E+04 -1.5379E+06  1.4914E+06  0.0000E+00 -3.8074E-02  0.0000E+00  0.0000E+00
                5.5682E+03  0.0000E+00  0.0000E+00  0.0000E+00  9.0000E+01  9.0000E+01  9.0000E+01  0.0000E+00  5.0355E+01
 ----------------------------------------------------------------------------------------------------------------------------------
           340 -1.1993E+06  6.5491E+02 -1.2020E+06  2.9247E+05 -1.4945E+06  0.0000E+00  4.2218E-03  0.0000E+00  0.0000E+00
       0.34000 -1.1804E+06  1.8829E+03 -5.3187E+04 -1.5467E+06  1.4936E+06  0.0000E+00 -4.0839E-02  0.0000E+00  0.0000E+00
         2.210  5.5682E+03  0.0000E+00  0.0000E+00  0.0000E+00  9.0000E+01  9.0000E+01  9.0000E+01  0.0000E+00  5.6766E+01

       rolling -1.1993E+06  6.4089E+02 -1.2019E+06  2.9063E+05 -1.4925E+06  0.0000E+00  3.9308E-03  0.0000E+00  0.0000E+00
      averages -1.1823E+06  1.1189E+03 -4.7268E+04 -1.5386E+06  1.4916E+06  0.0000E+00 -3.8016E-02  0.0000E+00  0.0000E+00
                5.5682E+03  0.0000E+00  0.0000E+00  0.0000E+00  9.0000E+01  9.0000E+01  9.0000E+01  0.0000E+00  5.0878E+01
 ----------------------------------------------------------------------------------------------------------------------------------
           350 -1.1993E+06  6.3941E+02 -1.2020E+06  2.9078E+05 -1.4927E+06  0.0000E+00  4.0128E-03  0.0000E+00  0.0000E+00
       0.35000 -1.1823E+06  1.7587E+03 -4.7429E+04 -1.5392E+06  1.4919E+06  0.0000E+00 -3.8797E-02  0.0000E+00  0.0000E+00
         2.276  5.5682E+03  0.0000E+00  0.0000E+00  0.0000E+00  9.0000E+01  9.0000E+01  9.0000E+01  0.0000E+00  5.1010E+01

       rolling -1.1993E+06  6.3744E+02 -1.2019E+06  2.9064E+05 -1.4925E+06  0.0000E+00  3.9614E-03  0.0000E+00  0.0000E+00
      averages -1.1823E+06  1.1782E+03 -4.7244E+04 -1.5386E+06  1.4916E+06  0.0000E+00 -3.8306E-02  0.0000E+00  0.0000E+00
                5.5682E+03  0.0000E+00  0.0000E+00  0.0000E+00  9.0000E+01  9.0000E+01  9.0000E+01  0.0000E+00  5.0829E+01
 ----------------------------------------------------------------------------------------------------------------------------------
           360 -1.1993E+06  6.1484E+02 -1.2019E+06  2.8826E+05 -1.4902E+06  0.0000E+00  3.4721E-03  0.0000E+00  0.0000E+00
       0.36000 -1.1850E+06  1.3449E+03 -3.9564E+04 -1.5286E+06  1.4893E+06  0.0000E+00 -3.3623E-02  0.0000E+00  0.0000E+00
         2.339  5.5682E+03  0.0000E+00  0.0000E+00  0.0000E+00  9.0000E+01  9.0000E+01  9.0000E+01  0.0000E+00  4.3130E+01

       rolling -1.1993E+06  6.3605E+02 -1.2019E+06  2.9033E+05 -1.4922E+06  0.0000E+00  3.8785E-03  0.0000E+00  0.0000E+00
      averages -1.1827E+06  1.2566E+03 -4.6157E+04 -1.5373E+06  1.4913E+06  0.0000E+00 -3.7513E-02  0.0000E+00  0.0000E+00
                5.5682E+03  0.0000E+00  0.0000E+00  0.0000E+00  9.0000E+01  9.0000E+01  9.0000E+01  0.0000E+00  4.9751E+01
 ----------------------------------------------------------------------------------------------------------------------------------
           370 -1.1993E+06  6.1142E+02 -1.2019E+06  2.8887E+05 -1.4908E+06  0.0000E+00  3.9614E-03  0.0000E+00  0.0000E+00
       0.37000 -1.1845E+06  7.2412E+02 -4.1090E+04 -1.5307E+06  1.4899E+06  0.0000E+00 -3.8226E-02  0.0000E+00  0.0000E+00
         2.403  5.5682E+03  0.0000E+00  0.0000E+00  0.0000E+00  9.0000E+01  9.0000E+01  9.0000E+01  0.0000E+00  4.4618E+01

       rolling -1.1993E+06  6.3497E+02 -1.2019E+06  2.9004E+05 -1.4919E+06  0.0000E+00  3.8327E-03  0.0000E+00  0.0000E+00
      averages -1.1830E+06  1.2999E+03 -4.5175E+04 -1.5360E+06  1.4911E+06  0.0000E+00 -3.7073E-02  0.0000E+00  0.0000E+00
                5.5682E+03  0.0000E+00  0.0000E+00  0.0000E+00  9.0000E+01  9.0000E+01  9.0000E+01  0.0000E+00  4.8778E+01
 ----------------------------------------------------------------------------------------------------------------------------------
           380 -1.1993E+06  6.4847E+02 -1.2021E+06  2.8866E+05 -1.4907E+06  0.0000E+00  3.5122E-03  0.0000E+00  0.0000E+00
       0.38000 -1.1847E+06  3.8167E+02 -4.0441E+04 -1.5301E+06  1.4898E+06  0.0000E+00 -3.4024E-02  0.0000E+00  0.0000E+00
         2.468  5.5682E+03  0.0000E+00  0.0000E+00  0.0000E+00  9.0000E+01  9.0000E+01  9.0000E+01  0.0000E+00  4.4253E+01

       rolling -1.1993E+06  6.3509E+02 -1.2019E+06  2.9001E+05 -1.4919E+06  0.0000E+00  3.8548E-03  0.0000E+00  0.0000E+00
      averages -1.1831E+06  1.2975E+03 -4.5010E+04 -1.5359E+06  1.4910E+06  0.0000E+00 -3.7276E-02  0.0000E+00  0.0000E+00
                5.5682E+03  0.0000E+00  0.0000E+00  0.0000E+00  9.0000E+01  9.0000E+01  9.0000E+01  0.0000E+00  4.8618E+01
 ----------------------------------------------------------------------------------------------------------------------------------
           390 -1.1993E+06  5.7573E+02 -1.2018E+06  2.8973E+05 -1.4915E+06  0.0000E+00  3.7210E-03  0.0000E+00  0.0000E+00
       0.39000 -1.1837E+06  2.2340E+02 -4.4017E+04 -1.5345E+06  1.4907E+06  0.0000E+00 -3.6036E-02  0.0000E+00  0.0000E+00
         2.531  5.5682E+03  0.0000E+00  0.0000E+00  0.0000E+00  9.0000E+01  9.0000E+01  9.0000E+01  0.0000E+00  4.7250E+01

       rolling -1.1993E+06  6.3314E+02 -1.2019E+06  2.9006E+05 -1.4920E+06  0.0000E+00  3.8254E-03  0.0000E+00  0.0000E+00
      averages -1.1831E+06  1.2629E+03 -4.5186E+04 -1.5361E+06  1.4911E+06  0.0000E+00 -3.7001E-02  0.0000E+00  0.0000E+00
                5.5682E+03  0.0000E+00  0.0000E+00  0.0000E+00  9.0000E+01  9.0000E+01  9.0000E+01  0.0000E+00  4.8777E+01
 ----------------------------------------------------------------------------------------------------------------------------------
 ----------------------------------------------------------------------------------------------------------------------------------

          step     eng_tot    temp_tot     eng_cfg     eng_src     eng_cou     eng_bnd     eng_ang     eng_dih     eng_tet
      time(ps)      eng_pv    temp_rot     vir_cfg     vir_src     vir_cou     vir_bnd     vir_ang     vir_con     vir_tet
      cpu  (s)      volume    temp_shl     eng_shl     vir_shl       alpha        beta       gamma     vir_pmf       press

 ----------------------------------------------------------------------------------------------------------------------------------
           400 -1.1993E+06  6.2512E+02 -1.2020E+06  2.9146E+05 -1.4935E+06  0.0000E+00  4.3263E-03  0.0000E+00  0.0000E+00
       0.40000 -1.1817E+06  1.2662E+02 -4.9671E+04 -1.5421E+06  1.4926E+06  0.0000E+00 -4.1759E-02  0.0000E+00  0.0000E+00
         2.596  5.5682E+03  0.0000E+00  0.0000E+00  0.0000E+00  9.0000E+01  9.0000E+01  9.0000E+01  0.0000E+00  5.3149E+01

       rolling -1.1993E+06  6.2826E+02 -1.2019E+06  2.9036E+05 -1.4923E+06  0.0000E+00  3.8813E-03  0.0000E+00  0.0000E+00
      averages -1.1828E+06  1.1919E+03 -4.6147E+04 -1.5374E+06  1.4914E+06  0.0000E+00 -3.7539E-02  0.0000E+00  0.0000E+00
                5.5682E+03  0.0000E+00  0.0000E+00  0.0000E+00  9.0000E+01  9.0000E+01  9.0000E+01  0.0000E+00  4.9687E+01
 ----------------------------------------------------------------------------------------------------------------------------------
           410 -1.1993E+06  6.1186E+02 -1.2020E+06  2.9140E+05 -1.4934E+06  0.0000E+00  3.7620E-03  0.0000E+00  0.0000E+00
       0.41000 -1.1817E+06  4.5763E+01 -4.9934E+04 -1.5422E+06  1.4925E+06  0.0000E+00 -3.6481E-02  0.0000E+00  0.0000E+00
         2.660  5.5682E+03  0.0000E+00  0.0000E+00  0.0000E+00  9.0000E+01  9.0000E+01  9.0000E+01  0.0000E+00  5.3315E+01

       rolling -1.1993E+06  6.2597E+02 -1.2019E+06  2.9064E+05 -1.4926E+06  0.0000E+00  3.9505E-03  0.0000E+00  0.0000E+00
      averages -1.1825E+06  1.0728E+03 -4.7086E+04 -1.5386E+06  1.4917E+06  0.0000E+00 -3.8200E-02  0.0000E+00  0.0000E+00
                5.5682E+03  0.0000E+00  0.0000E+00  0.0000E+00  9.0000E+01  9.0000E+01  9.0000E+01  0.0000E+00  5.0595E+01
 ----------------------------------------------------------------------------------------------------------------------------------
           420 -1.1993E+06  6.0160E+02 -1.2020E+06  2.9158E+05 -1.4935E+06  0.0000E+00  3.9600E-03  0.0000E+00  0.0000E+00
       0.42000 -1.1815E+06  9.7107E+00 -5.0563E+04 -1.5429E+06  1.4927E+06  0.0000E+00 -3.8329E-02  0.0000E+00  0.0000E+00
         2.723  5.5682E+03  0.0000E+00  0.0000E+00  0.0000E+00  9.0000E+01  9.0000E+01  9.0000E+01  0.0000E+00  5.3860E+01

       rolling -1.1993E+06  6.2096E+02 -1.2019E+06  2.9067E+05 -1.4926E+06  0.0000E+00  3.9165E-03  0.0000E+00  0.0000E+00
      averages -1.1825E+06  9.1293E+02 -4.7223E+04 -1.5388E+06  1.4917E+06  0.0000E+00 -3.7883E-02  0.0000E+00  0.0000E+00
                5.5682E+03  0.0000E+00  0.0000E+00  0.0000E+00  9.0000E+01  9.0000E+01  9.0000E+01  0.0000E+00  5.0698E+01
 ----------------------------------------------------------------------------------------------------------------------------------
           430 -1.1993E+06  6.3286E+02 -1.2021E+06  2.9114E+05 -1.4932E+06  0.0000E+00  3.7759E-03  0.0000E+00  0.0000E+00
       0.43000 -1.1820E+06  7.3604E+01 -4.8759E+04 -1.5408E+06  1.4924E+06  0.0000E+00 -3.6491E-02  0.0000E+00  0.0000E+00
         2.789  5.5682E+03  0.0000E+00  0.0000E+00  0.0000E+00  9.0000E+01  9.0000E+01  9.0000E+01  0.0000E+00  5.2310E+01

       rolling -1.1993E+06  6.1636E+02 -1.2019E+06  2.9055E+05 -1.4925E+06  0.0000E+00  3.8903E-03  0.0000E+00  0.0000E+00
      averages -1.1826E+06  7.3682E+02 -4.6828E+04 -1.5382E+06  1.4916E+06  0.0000E+00 -3.7634E-02  0.0000E+00  0.0000E+00
                5.5682E+03  0.0000E+00  0.0000E+00  0.0000E+00  9.0000E+01  9.0000E+01  9.0000E+01  0.0000E+00  5.0282E+01
 ----------------------------------------------------------------------------------------------------------------------------------
           440 -1.1993E+06  5.9441E+02 -1.2020E+06  2.8973E+05 -1.4917E+06  0.0000E+00  3.2650E-03  0.0000E+00  0.0000E+00
       0.44000 -1.1838E+06  1.5826E+02 -4.3968E+04 -1.5346E+06  1.4909E+06  0.0000E+00 -3.1631E-02  0.0000E+00  0.0000E+00
         2.852  5.5682E+03  0.0000E+00  0.0000E+00  0.0000E+00  9.0000E+01  9.0000E+01  9.0000E+01  0.0000E+00  4.7335E+01

       rolling -1.1993E+06  6.1692E+02 -1.2020E+06  2.9030E+05 -1.4923E+06  0.0000E+00  3.8228E-03  0.0000E+00  0.0000E+00
      averages -1.1829E+06  5.6153E+02 -4.5994E+04 -1.5371E+06  1.4914E+06  0.0000E+00 -3.6981E-02  0.0000E+00  0.0000E+00
                5.5682E+03  0.0000E+00  0.0000E+00  0.0000E+00  9.0000E+01  9.0000E+01  9.0000E+01  0.0000E+00  4.9472E+01
 ----------------------------------------------------------------------------------------------------------------------------------
           450 -1.1993E+06  6.0123E+02 -1.2020E+06  2.8935E+05 -1.4914E+06  0.0000E+00  3.8465E-03  0.0000E+00  0.0000E+00
       0.45000 -1.1842E+06  2.1451E+02 -4.2726E+04 -1.5331E+06  1.4905E+06  0.0000E+00 -3.7184E-02  0.0000E+00  0.0000E+00
         2.918  5.5682E+03  0.0000E+00  0.0000E+00  0.0000E+00  9.0000E+01  9.0000E+01  9.0000E+01  0.0000E+00  4.6164E+01

       rolling -1.1993E+06  6.1539E+02 -1.2020E+06  2.9005E+05 -1.4920E+06  0.0000E+00  3.7524E-03  0.0000E+00  0.0000E+00
      averages -1.1832E+06  3.9739E+02 -4.5177E+04 -1.5361E+06  1.4912E+06  0.0000E+00 -3.6306E-02  0.0000E+00  0.0000E+00
                5.5682E+03  0.0000E+00  0.0000E+00  0.0000E+00  9.0000E+01  9.0000E+01  9.0000E+01  0.0000E+00  4.8664E+01
 ----------------------------------------------------------------------------------------------------------------------------------
           460 -1.1993E+06  5.8501E+02 -1.2020E+06  2.8910E+05 -1.4911E+06  0.0000E+00  3.7881E-03  0.0000E+00  0.0000E+00
       0.46000 -1.1844E+06  2.4411E+02 -4.2117E+04 -1.5322E+06  1.4902E+06  0.0000E+00 -3.6543E-02  0.0000E+00  0.0000E+00
         2.981  5.5682E+03  0.0000E+00  0.0000E+00  0.0000E+00  9.0000E+01  9.0000E+01  9.0000E+01  0.0000E+00  4.5451E+01

       rolling -1.1993E+06  6.1128E+02 -1.2020E+06  2.9006E+05 -1.4920E+06  0.0000E+00  3.7850E-03  0.0000E+00  0.0000E+00
      averages -1.1833E+06  2.6463E+02 -4.5184E+04 -1.5361E+06  1.4912E+06  0.0000E+00 -3.6610E-02  0.0000E+00  0.0000E+00
                5.5682E+03  0.0000E+00  0.0000E+00  0.0000E+00  9.0000E+01  9.0000E+01  9.0000E+01  0.0000E+00  4.8645E+01
 ----------------------------------------------------------------------------------------------------------------------------------
           470 -1.1993E+06  5.8427E+02 -1.2020E+06  2.8915E+05 -1.4912E+06  0.0000E+00  3.2412E-03  0.0000E+00  0.0000E+00
       0.47000 -1.1843E+06  2.1751E+02 -4.2489E+04 -1.5325E+06  1.4903E+06  0.0000E+00 -3.1426E-02  0.0000E+00  0.0000E+00
         3.045  5.5682E+03  0.0000E+00  0.0000E+00  0.0000E+00  9.0000E+01  9.0000E+01  9.0000E+01  0.0000E+00  4.5811E+01

       rolling -1.1993E+06  6.0662E+02 -1.2020E+06  2.9012E+05 -1.4921E+06  0.0000E+00  3.7537E-03  0.0000E+00  0.0000E+00
      averages -1.1832E+06  1.8857E+02 -4.5406E+04 -1.5364E+06  1.4912E+06  0.0000E+00 -3.6310E-02  0.0000E+00  0.0000E+00
                5.5682E+03  0.0000E+00  0.0000E+00  0.0000E+00  9.0000E+01  9.0000E+01  9.0000E+01  0.0000E+00  4.8832E+01
 ----------------------------------------------------------------------------------------------------------------------------------
 ----------------------------------------------------------------------------------------------------------------------------------

          step     eng_tot    temp_tot     eng_cfg     eng_src     eng_cou     eng_bnd     eng_ang     eng_dih     eng_tet
      time(ps)      eng_pv    temp_rot     vir_cfg     vir_src     vir_cou     vir_bnd     vir_ang     vir_con     vir_tet
      cpu  (s)      volume    temp_shl     eng_shl     vir_shl       alpha        beta       gamma     vir_pmf       press

 ----------------------------------------------------------------------------------------------------------------------------------
           480 -1.1993E+06  5.7484E+02 -1.2020E+06  2.9079E+05 -1.4928E+06  0.0000E+00  4.0039E-03  0.0000E+00  0.0000E+00
       0.48000 -1.1827E+06  1.6394E+02 -4.7670E+04 -1.5394E+06  1.4919E+06  0.0000E+00 -3.8681E-02  0.0000E+00  0.0000E+00
         3.111  5.5682E+03  0.0000E+00  0.0000E+00  0.0000E+00  9.0000E+01  9.0000E+01  9.0000E+01  0.0000E+00  5.0829E+01

       rolling -1.1993E+06  6.0300E+02 -1.2020E+06  2.9023E+05 -1.4922E+06  0.0000E+00  3.7331E-03  0.0000E+00  0.0000E+00
      averages -1.1831E+06  1.5610E+02 -4.5802E+04 -1.5369E+06  1.4914E+06  0.0000E+00 -3.6118E-02  0.0000E+00  0.0000E+00
                5.5682E+03  0.0000E+00  0.0000E+00  0.0000E+00  9.0000E+01  9.0000E+01  9.0000E+01  0.0000E+00  4.9196E+01
 ----------------------------------------------------------------------------------------------------------------------------------
           490 -1.1993E+06  6.1093E+02 -1.2022E+06  2.9154E+05 -1.4937E+06  0.0000E+00  3.7186E-03  0.0000E+00  0.0000E+00
       0.49000 -1.1817E+06  1.3839E+02 -5.0237E+04 -1.5429E+06  1.4928E+06  0.0000E+00 -3.5968E-02  0.0000E+00  0.0000E+00
         3.175  5.5682E+03  0.0000E+00  0.0000E+00  0.0000E+00  9.0000E+01  9.0000E+01  9.0000E+01  0.0000E+00  5.3603E+01

       rolling -1.1993E+06  5.9935E+02 -1.2020E+06  2.9047E+05 -1.4925E+06  0.0000E+00  3.7838E-03  0.0000E+00  0.0000E+00
      averages -1.1829E+06  1.4229E+02 -4.6606E+04 -1.5380E+06  1.4916E+06  0.0000E+00 -3.6595E-02  0.0000E+00  0.0000E+00
                5.5682E+03  0.0000E+00  0.0000E+00  0.0000E+00  9.0000E+01  9.0000E+01  9.0000E+01  0.0000E+00  4.9959E+01
 ----------------------------------------------------------------------------------------------------------------------------------
           500 -1.1993E+06  5.5740E+02 -1.2020E+06  2.9200E+05 -1.4940E+06  0.0000E+00  3.6923E-03  0.0000E+00  0.0000E+00
       0.50000 -1.1814E+06  1.0305E+02 -5.1732E+04 -1.5447E+06  1.4931E+06  0.0000E+00 -3.5726E-02  0.0000E+00  0.0000E+00
         3.240  5.5682E+03  0.0000E+00  0.0000E+00  0.0000E+00  9.0000E+01  9.0000E+01  9.0000E+01  0.0000E+00  5.4692E+01

       rolling -1.1993E+06  5.9598E+02 -1.2020E+06  2.9057E+05 -1.4926E+06  0.0000E+00  3.7274E-03  0.0000E+00  0.0000E+00
      averages -1.1828E+06  1.3770E+02 -4.6981E+04 -1.5385E+06  1.4917E+06  0.0000E+00 -3.6056E-02  0.0000E+00  0.0000E+00
                5.5682E+03  0.0000E+00  0.0000E+00  0.0000E+00  9.0000E+01  9.0000E+01  9.0000E+01  0.0000E+00  5.0303E+01
 ----------------------------------------------------------------------------------------------------------------------------------
           510 -1.1993E+06  5.4445E+02 -1.2020E+06  2.9199E+05 -1.4940E+06  0.0000E+00  4.2870E-03  0.0000E+00  0.0000E+00
       0.51000 -1.1814E+06  3.5697E+01 -5.1805E+04 -1.5446E+06  1.4931E+06  0.0000E+00 -4.1401E-02  0.0000E+00  0.0000E+00
         3.303  5.5682E+03  0.0000E+00  0.0000E+00  0.0000E+00  9.0000E+01  9.0000E+01  9.0000E+01  0.0000E+00  5.4674E+01

       rolling -1.1993E+06  5.9279E+02 -1.2020E+06  2.9061E+05 -1.4926E+06  0.0000E+00  3.7297E-03  0.0000E+00  0.0000E+00
      averages -1.1828E+06  1.3625E+02 -4.7117E+04 -1.5386E+06  1.4918E+06  0.0000E+00 -3.6076E-02  0.0000E+00  0.0000E+00
                5.5682E+03  0.0000E+00  0.0000E+00  0.0000E+00  9.0000E+01  9.0000E+01  9.0000E+01  0.0000E+00  5.0414E+01
 ----------------------------------------------------------------------------------------------------------------------------------
           520 -1.1993E+06  5.8288E+02 -1.2021E+06  2.9071E+05 -1.4928E+06  0.0000E+00  3.5127E-03  0.0000E+00  0.0000E+00
       0.52000 -1.1828E+06  2.5531E+01 -4.7522E+04 -1.5392E+06  1.4920E+06  0.0000E+00 -3.4005E-02  0.0000E+00  0.0000E+00
         3.367  5.5682E+03  0.0000E+00  0.0000E+00  0.0000E+00  9.0000E+01  9.0000E+01  9.0000E+01  0.0000E+00  5.0744E+01

       rolling -1.1993E+06  5.9075E+02 -1.2020E+06  2.9059E+05 -1.4926E+06  0.0000E+00  3.7424E-03  0.0000E+00  0.0000E+00
      averages -1.1828E+06  1.3655E+02 -4.7036E+04 -1.5386E+06  1.4918E+06  0.0000E+00 -3.6188E-02  0.0000E+00  0.0000E+00
                5.5682E+03  0.0000E+00  0.0000E+00  0.0000E+00  9.0000E+01  9.0000E+01  9.0000E+01  0.0000E+00  5.0320E+01
 ----------------------------------------------------------------------------------------------------------------------------------
           530 -1.1993E+06  5.9327E+02 -1.2022E+06  2.9008E+05 -1.4923E+06  0.0000E+00  3.4494E-03  0.0000E+00  0.0000E+00
       0.53000 -1.1836E+06  5.5059E+01 -4.5212E+04 -1.5364E+06  1.4914E+06  0.0000E+00 -3.3372E-02  0.0000E+00  0.0000E+00
         3.434  5.5682E+03  0.0000E+00  0.0000E+00  0.0000E+00  9.0000E+01  9.0000E+01  9.0000E+01  0.0000E+00  4.8550E+01

       rolling -1.1993E+06  5.8768E+02 -1.2021E+06  2.9047E+05 -1.4925E+06  0.0000E+00  3.6808E-03  0.0000E+00  0.0000E+00
      averages -1.1830E+06  1.3714E+02 -4.6641E+04 -1.5381E+06  1.4917E+06  0.0000E+00 -3.5598E-02  0.0000E+00  0.0000E+00
                5.5682E+03  0.0000E+00  0.0000E+00  0.0000E+00  9.0000E+01  9.0000E+01  9.0000E+01  0.0000E+00  4.9911E+01
 ----------------------------------------------------------------------------------------------------------------------------------
           540 -1.1993E+06  5.7924E+02 -1.2022E+06  2.8994E+05 -1.4921E+06  0.0000E+00  3.5678E-03  0.0000E+00  0.0000E+00
       0.54000 -1.1838E+06  6.3093E+01 -4.4640E+04 -1.5356E+06  1.4912E+06  0.0000E+00 -3.4482E-02  0.0000E+00  0.0000E+00
         3.497  5.5682E+03  0.0000E+00  0.0000E+00  0.0000E+00  9.0000E+01  9.0000E+01  9.0000E+01  0.0000E+00  4.7890E+01

       rolling -1.1993E+06  5.8157E+02 -1.2021E+06  2.9045E+05 -1.4925E+06  0.0000E+00  3.7015E-03  0.0000E+00  0.0000E+00
      averages -1.1830E+06  1.3086E+02 -4.6558E+04 -1.5380E+06  1.4916E+06  0.0000E+00 -3.5795E-02  0.0000E+00  0.0000E+00
                5.5682E+03  0.0000E+00  0.0000E+00  0.0000E+00  9.0000E+01  9.0000E+01  9.0000E+01  0.0000E+00  4.9786E+01
 ----------------------------------------------------------------------------------------------------------------------------------
           550 -1.1993E+06  5.4933E+02 -1.2021E+06  2.8986E+05 -1.4919E+06  0.0000E+00  3.3850E-03  0.0000E+00  0.0000E+00
       0.55000 -1.1839E+06  6.5444E+01 -4.4692E+04 -1.5355E+06  1.4911E+06  0.0000E+00 -3.2786E-02  0.0000E+00  0.0000E+00
         3.561  5.5682E+03  0.0000E+00  0.0000E+00  0.0000E+00  9.0000E+01  9.0000E+01  9.0000E+01  0.0000E+00  4.7729E+01

       rolling -1.1993E+06  5.7845E+02 -1.2021E+06  2.9049E+05 -1.4926E+06  0.0000E+00  3.6876E-03  0.0000E+00  0.0000E+00
      averages -1.1830E+06  1.1829E+02 -4.6701E+04 -1.5382E+06  1.4917E+06  0.0000E+00 -3.5658E-02  0.0000E+00  0.0000E+00
                5.5682E+03  0.0000E+00  0.0000E+00  0.0000E+00  9.0000E+01  9.0000E+01  9.0000E+01  0.0000E+00  4.9905E+01
 ----------------------------------------------------------------------------------------------------------------------------------
 ----------------------------------------------------------------------------------------------------------------------------------

          step     eng_tot    temp_tot     eng_cfg     eng_src     eng_cou     eng_bnd     eng_ang     eng_dih     eng_tet
      time(ps)      eng_pv    temp_rot     vir_cfg     vir_src     vir_cou     vir_bnd     vir_ang     vir_con     vir_tet
      cpu  (s)      volume    temp_shl     eng_shl     vir_shl       alpha        beta       gamma     vir_pmf       press

 ----------------------------------------------------------------------------------------------------------------------------------
           560 -1.1993E+06  5.4579E+02 -1.2021E+06  2.9117E+05 -1.4933E+06  0.0000E+00  4.0857E-03  0.0000E+00  0.0000E+00
       0.56000 -1.1825E+06  6.5536E+01 -4.8949E+04 -1.5411E+06  1.4924E+06  0.0000E+00 -3.9510E-02  0.0000E+00  0.0000E+00
         3.626  5.5682E+03  0.0000E+00  0.0000E+00  0.0000E+00  9.0000E+01  9.0000E+01  9.0000E+01  0.0000E+00  5.1881E+01

       rolling -1.1993E+06  5.7474E+02 -1.2021E+06  2.9062E+05 -1.4927E+06  0.0000E+00  3.6699E-03  0.0000E+00  0.0000E+00
      averages -1.1829E+06  1.0140E+02 -4.7138E+04 -1.5387E+06  1.4918E+06  0.0000E+00 -3.5497E-02  0.0000E+00  0.0000E+00
                5.5682E+03  0.0000E+00  0.0000E+00  0.0000E+00  9.0000E+01  9.0000E+01  9.0000E+01  0.0000E+00  5.0308E+01
 ----------------------------------------------------------------------------------------------------------------------------------
           570 -1.1993E+06  5.6247E+02 -1.2022E+06  2.9181E+05 -1.4940E+06  0.0000E+00  3.8472E-03  0.0000E+00  0.0000E+00
       0.57000 -1.1818E+06  7.2274E+01 -5.0915E+04 -1.5438E+06  1.4931E+06  0.0000E+00 -3.7121E-02  0.0000E+00  0.0000E+00
         3.690  5.5682E+03  0.0000E+00  0.0000E+00  0.0000E+00  9.0000E+01  9.0000E+01  9.0000E+01  0.0000E+00  5.3927E+01

       rolling -1.1993E+06  5.7264E+02 -1.2021E+06  2.9087E+05 -1.4930E+06  0.0000E+00  3.7353E-03  0.0000E+00  0.0000E+00
      averages -1.1827E+06  8.4746E+01 -4.7978E+04 -1.5399E+06  1.4921E+06  0.0000E+00 -3.6122E-02  0.0000E+00  0.0000E+00
                5.5682E+03  0.0000E+00  0.0000E+00  0.0000E+00  9.0000E+01  9.0000E+01  9.0000E+01  0.0000E+00  5.1118E+01
 ----------------------------------------------------------------------------------------------------------------------------------
           580 -1.1993E+06  5.2575E+02 -1.2021E+06  2.9113E+05 -1.4932E+06  0.0000E+00  3.4279E-03  0.0000E+00  0.0000E+00
       0.58000 -1.1827E+06  9.2484E+01 -4.8701E+04 -1.5408E+06  1.4923E+06  0.0000E+00 -3.3234E-02  0.0000E+00  0.0000E+00
         3.753  5.5682E+03  0.0000E+00  0.0000E+00  0.0000E+00  9.0000E+01  9.0000E+01  9.0000E+01  0.0000E+00  5.1495E+01

       rolling -1.1993E+06  5.6789E+02 -1.2021E+06  2.9101E+05 -1.4931E+06  0.0000E+00  3.7291E-03  0.0000E+00  0.0000E+00
      averages -1.1826E+06  7.4337E+01 -4.8411E+04 -1.5404E+06  1.4922E+06  0.0000E+00 -3.6061E-02  0.0000E+00  0.0000E+00
                5.5682E+03  0.0000E+00  0.0000E+00  0.0000E+00  9.0000E+01  9.0000E+01  9.0000E+01  0.0000E+00  5.1509E+01
 ----------------------------------------------------------------------------------------------------------------------------------
           590 -1.1993E+06  5.5852E+02 -1.2022E+06  2.9068E+05 -1.4929E+06  0.0000E+00  3.8643E-03  0.0000E+00  0.0000E+00
       0.59000 -1.1831E+06  1.3135E+02 -4.7275E+04 -1.5391E+06  1.4920E+06  0.0000E+00 -3.7264E-02  0.0000E+00  0.0000E+00
         3.818  5.5682E+03  0.0000E+00  0.0000E+00  0.0000E+00  9.0000E+01  9.0000E+01  9.0000E+01  0.0000E+00  5.0327E+01

       rolling -1.1993E+06  5.6446E+02 -1.2021E+06  2.9097E+05 -1.4931E+06  0.0000E+00  3.6959E-03  0.0000E+00  0.0000E+00
      averages -1.1826E+06  7.0667E+01 -4.8264E+04 -1.5403E+06  1.4922E+06  0.0000E+00 -3.5743E-02  0.0000E+00  0.0000E+00
                5.5682E+03  0.0000E+00  0.0000E+00  0.0000E+00  9.0000E+01  9.0000E+01  9.0000E+01  0.0000E+00  5.1340E+01
 ----------------------------------------------------------------------------------------------------------------------------------
           600 -1.1993E+06  5.5959E+02 -1.2022E+06  2.9033E+05 -1.4926E+06  0.0000E+00  3.4103E-03  0.0000E+00  0.0000E+00
       0.60000 -1.1836E+06  1.8722E+02 -4.5972E+04 -1.5375E+06  1.4917E+06  0.0000E+00 -3.3032E-02  0.0000E+00  0.0000E+00
         3.882  5.5682E+03  0.0000E+00  0.0000E+00  0.0000E+00  9.0000E+01  9.0000E+01  9.0000E+01  0.0000E+00  4.9054E+01

       rolling -1.1993E+06  5.6141E+02 -1.2021E+06  2.9085E+05 -1.4930E+06  0.0000E+00  3.7072E-03  0.0000E+00  0.0000E+00
      averages -1.1828E+06  7.4686E+01 -4.7843E+04 -1.5397E+06  1.4921E+06  0.0000E+00 -3.5844E-02  0.0000E+00  0.0000E+00
                5.5682E+03  0.0000E+00  0.0000E+00  0.0000E+00  9.0000E+01  9.0000E+01  9.0000E+01  0.0000E+00  5.0906E+01
 ----------------------------------------------------------------------------------------------------------------------------------
           610 -1.1993E+06  5.3307E+02 -1.2022E+06  2.9100E+05 -1.4932E+06  0.0000E+00  3.3659E-03  0.0000E+00  0.0000E+00
       0.61000 -1.1830E+06  2.2767E+02 -4.8086E+04 -1.5402E+06  1.4923E+06  0.0000E+00 -3.2533E-02  0.0000E+00  0.0000E+00
         3.947  5.5682E+03  0.0000E+00  0.0000E+00  0.0000E+00  9.0000E+01  9.0000E+01  9.0000E+01  0.0000E+00  5.0940E+01

       rolling -1.1993E+06  5.6064E+02 -1.2022E+06  2.9069E+05 -1.4928E+06  0.0000E+00  3.6282E-03  0.0000E+00  0.0000E+00
      averages -1.1830E+06  8.9176E+01 -4.7289E+04 -1.5390E+06  1.4920E+06  0.0000E+00 -3.5085E-02  0.0000E+00  0.0000E+00
                5.5682E+03  0.0000E+00  0.0000E+00  0.0000E+00  9.0000E+01  9.0000E+01  9.0000E+01  0.0000E+00  5.0356E+01
 ----------------------------------------------------------------------------------------------------------------------------------
           620 -1.1993E+06  5.5693E+02 -1.2023E+06  2.9196E+05 -1.4942E+06  0.0000E+00  3.8676E-03  0.0000E+00  0.0000E+00
       0.62000 -1.1818E+06  2.5006E+02 -5.1335E+04 -1.5446E+06  1.4934E+06  0.0000E+00 -3.7357E-02  0.0000E+00  0.0000E+00
         4.010  5.5682E+03  0.0000E+00  0.0000E+00  0.0000E+00  9.0000E+01  9.0000E+01  9.0000E+01  0.0000E+00  5.4296E+01

       rolling -1.1993E+06  5.5637E+02 -1.2022E+06  2.9072E+05 -1.4929E+06  0.0000E+00  3.6057E-03  0.0000E+00  0.0000E+00
      averages -1.1830E+06  1.1106E+02 -4.7352E+04 -1.5391E+06  1.4920E+06  0.0000E+00 -3.4865E-02  0.0000E+00  0.0000E+00
                5.5682E+03  0.0000E+00  0.0000E+00  0.0000E+00  9.0000E+01  9.0000E+01  9.0000E+01  0.0000E+00  5.0387E+01
 ----------------------------------------------------------------------------------------------------------------------------------
           630 -1.1993E+06  5.2241E+02 -1.2022E+06  2.9189E+05 -1.4941E+06  0.0000E+00  3.4367E-03  0.0000E+00  0.0000E+00
       0.63000 -1.1820E+06  2.6541E+02 -5.1075E+04 -1.5442E+06  1.4932E+06  0.0000E+00 -3.3265E-02  0.0000E+00  0.0000E+00
         4.074  5.5682E+03  0.0000E+00  0.0000E+00  0.0000E+00  9.0000E+01  9.0000E+01  9.0000E+01  0.0000E+00  5.3796E+01

       rolling -1.1993E+06  5.5352E+02 -1.2022E+06  2.9090E+05 -1.4931E+06  0.0000E+00  3.6351E-03  0.0000E+00  0.0000E+00
      averages -1.1829E+06  1.3259E+02 -4.7912E+04 -1.5399E+06  1.4922E+06  0.0000E+00 -3.5147E-02  0.0000E+00  0.0000E+00
                5.5682E+03  0.0000E+00  0.0000E+00  0.0000E+00  9.0000E+01  9.0000E+01  9.0000E+01  0.0000E+00  5.0916E+01
 ----------------------------------------------------------------------------------------------------------------------------------
 ----------------------------------------------------------------------------------------------------------------------------------

          step     eng_tot    temp_tot     eng_cfg     eng_src     eng_cou     eng_bnd     eng_ang     eng_dih     eng_tet
      time(ps)      eng_pv    temp_rot     vir_cfg     vir_src     vir_cou     vir_bnd     vir_ang     vir_con     vir_tet
      cpu  (s)      volume    temp_shl     eng_shl     vir_shl       alpha        beta       gamma     vir_pmf       press

 ----------------------------------------------------------------------------------------------------------------------------------
           640 -1.1993E+06  5.5000E+02 -1.2023E+06  2.9150E+05 -1.4938E+06  0.0000E+00  3.3019E-03  0.0000E+00  0.0000E+00
       0.64000 -1.1824E+06  2.7931E+02 -4.9721E+04 -1.5425E+06  1.4929E+06  0.0000E+00 -3.1914E-02  0.0000E+00  0.0000E+00
         4.140  5.5682E+03  0.0000E+00  0.0000E+00  0.0000E+00  9.0000E+01  9.0000E+01  9.0000E+01  0.0000E+00  5.2662E+01

       rolling -1.1993E+06  5.4790E+02 -1.2022E+06  2.9105E+05 -1.4932E+06  0.0000E+00  3.6055E-03  0.0000E+00  0.0000E+00
      averages -1.1828E+06  1.5389E+02 -4.8420E+04 -1.5406E+06  1.4924E+06  0.0000E+00 -3.4861E-02  0.0000E+00  0.0000E+00
                5.5682E+03  0.0000E+00  0.0000E+00  0.0000E+00  9.0000E+01  9.0000E+01  9.0000E+01  0.0000E+00  5.1375E+01
 ----------------------------------------------------------------------------------------------------------------------------------
           650 -1.1993E+06  5.3893E+02 -1.2023E+06  2.9117E+05 -1.4935E+06  0.0000E+00  3.5087E-03  0.0000E+00  0.0000E+00
       0.65000 -1.1829E+06  2.9196E+02 -4.8557E+04 -1.5410E+06  1.4926E+06  0.0000E+00 -3.3966E-02  0.0000E+00  0.0000E+00
         4.203  5.5682E+03  0.0000E+00  0.0000E+00  0.0000E+00  9.0000E+01  9.0000E+01  9.0000E+01  0.0000E+00  5.1442E+01

       rolling -1.1993E+06  5.4621E+02 -1.2022E+06  2.9122E+05 -1.4934E+06  0.0000E+00  3.6101E-03  0.0000E+00  0.0000E+00
      averages -1.1826E+06  1.7596E+02 -4.8935E+04 -1.5413E+06  1.4925E+06  0.0000E+00 -3.4906E-02  0.0000E+00  0.0000E+00
                5.5682E+03  0.0000E+00  0.0000E+00  0.0000E+00  9.0000E+01  9.0000E+01  9.0000E+01  0.0000E+00  5.1867E+01
 ----------------------------------------------------------------------------------------------------------------------------------
           660 -1.1993E+06  5.2071E+02 -1.2023E+06  2.9021E+05 -1.4925E+06  0.0000E+00  3.2049E-03  0.0000E+00  0.0000E+00
       0.66000 -1.1840E+06  3.3364E+02 -4.5565E+04 -1.5370E+06  1.4916E+06  0.0000E+00 -3.0986E-02  0.0000E+00  0.0000E+00
         4.266  5.5682E+03  0.0000E+00  0.0000E+00  0.0000E+00  9.0000E+01  9.0000E+01  9.0000E+01  0.0000E+00  4.8377E+01

       rolling -1.1993E+06  5.4441E+02 -1.2022E+06  2.9122E+05 -1.4934E+06  0.0000E+00  3.5670E-03  0.0000E+00  0.0000E+00
      averages -1.1827E+06  2.0061E+02 -4.8908E+04 -1.5413E+06  1.4926E+06  0.0000E+00 -3.4487E-02  0.0000E+00  0.0000E+00
                5.5682E+03  0.0000E+00  0.0000E+00  0.0000E+00  9.0000E+01  9.0000E+01  9.0000E+01  0.0000E+00  5.1827E+01
[...]
        63.088  5.5682E+03  0.0000E+00  0.0000E+00  0.0000E+00  9.0000E+01  9.0000E+01  9.0000E+01  0.0000E+00  5.6859E+01

       rolling -1.1993E+06  9.8662E+01 -1.2039E+06  2.9335E+05 -1.4972E+06  0.0000E+00  2.4108E-03  0.0000E+00  0.0000E+00
      averages -1.1849E+06  9.3186E+01 -5.5083E+04 -1.5514E+06  1.4963E+06  0.0000E+00 -2.3279E-02  0.0000E+00  0.0000E+00
                5.5682E+03  0.0000E+00  0.0000E+00  0.0000E+00  9.0000E+01  9.0000E+01  9.0000E+01  0.0000E+00  5.4735E+01
 ----------------------------------------------------------------------------------------------------------------------------------
          9880 -1.1993E+06  1.0370E+02 -1.2039E+06  2.9386E+05 -1.4977E+06  0.0000E+00  2.3466E-03  0.0000E+00  0.0000E+00
       9.88000 -1.1843E+06  1.0558E+02 -5.6802E+04 -1.5536E+06  1.4968E+06  0.0000E+00 -2.2663E-02  0.0000E+00  0.0000E+00
        63.150  5.5682E+03  0.0000E+00  0.0000E+00  0.0000E+00  9.0000E+01  9.0000E+01  9.0000E+01  0.0000E+00  5.6457E+01

       rolling -1.1993E+06  9.8994E+01 -1.2039E+06  2.9340E+05 -1.4973E+06  0.0000E+00  2.3972E-03  0.0000E+00  0.0000E+00
      averages -1.1848E+06  9.5388E+01 -5.5265E+04 -1.5516E+06  1.4964E+06  0.0000E+00 -2.3148E-02  0.0000E+00  0.0000E+00
                5.5682E+03  0.0000E+00  0.0000E+00  0.0000E+00  9.0000E+01  9.0000E+01  9.0000E+01  0.0000E+00  5.4916E+01
 ----------------------------------------------------------------------------------------------------------------------------------
          9890 -1.1993E+06  9.9401E+01 -1.2039E+06  2.9381E+05 -1.4977E+06  0.0000E+00  2.4811E-03  0.0000E+00  0.0000E+00
       9.89000 -1.1844E+06  1.0663E+02 -5.6555E+04 -1.5533E+06  1.4968E+06  0.0000E+00 -2.3941E-02  0.0000E+00  0.0000E+00
        63.212  5.5682E+03  0.0000E+00  0.0000E+00  0.0000E+00  9.0000E+01  9.0000E+01  9.0000E+01  0.0000E+00  5.6184E+01

       rolling -1.1993E+06  9.9207E+01 -1.2039E+06  2.9345E+05 -1.4973E+06  0.0000E+00  2.3932E-03  0.0000E+00  0.0000E+00
      averages -1.1848E+06  9.7739E+01 -5.5431E+04 -1.5519E+06  1.4964E+06  0.0000E+00 -2.3109E-02  0.0000E+00  0.0000E+00
                5.5682E+03  0.0000E+00  0.0000E+00  0.0000E+00  9.0000E+01  9.0000E+01  9.0000E+01  0.0000E+00  5.5081E+01
 ----------------------------------------------------------------------------------------------------------------------------------
          9900 -1.1993E+06  9.3188E+01 -1.2038E+06  2.9345E+05 -1.4973E+06  0.0000E+00  2.4981E-03  0.0000E+00  0.0000E+00
       9.90000 -1.1848E+06  1.0558E+02 -5.5442E+04 -1.5518E+06  1.4964E+06  0.0000E+00 -2.4105E-02  0.0000E+00  0.0000E+00
        63.276  5.5682E+03  0.0000E+00  0.0000E+00  0.0000E+00  9.0000E+01  9.0000E+01  9.0000E+01  0.0000E+00  5.5049E+01

       rolling -1.1993E+06  9.9098E+01 -1.2039E+06  2.9351E+05 -1.4974E+06  0.0000E+00  2.4073E-03  0.0000E+00  0.0000E+00
      averages -1.1847E+06  9.9772E+01 -5.5610E+04 -1.5521E+06  1.4965E+06  0.0000E+00 -2.3240E-02  0.0000E+00  0.0000E+00
                5.5682E+03  0.0000E+00  0.0000E+00  0.0000E+00  9.0000E+01  9.0000E+01  9.0000E+01  0.0000E+00  5.5255E+01
 ----------------------------------------------------------------------------------------------------------------------------------
          9910 -1.1993E+06  9.8133E+01 -1.2038E+06  2.9344E+05 -1.4973E+06  0.0000E+00  2.4447E-03  0.0000E+00  0.0000E+00
       9.91000 -1.1848E+06  1.0747E+02 -5.5390E+04 -1.5518E+06  1.4964E+06  0.0000E+00 -2.3601E-02  0.0000E+00  0.0000E+00
        63.339  5.5682E+03  0.0000E+00  0.0000E+00  0.0000E+00  9.0000E+01  9.0000E+01  9.0000E+01  0.0000E+00  5.5032E+01

       rolling -1.1993E+06  9.9048E+01 -1.2039E+06  2.9355E+05 -1.4974E+06  0.0000E+00  2.4153E-03  0.0000E+00  0.0000E+00
      averages -1.1847E+06  1.0141E+02 -5.5761E+04 -1.5523E+06  1.4965E+06  0.0000E+00 -2.3318E-02  0.0000E+00  0.0000E+00
                5.5682E+03  0.0000E+00  0.0000E+00  0.0000E+00  9.0000E+01  9.0000E+01  9.0000E+01  0.0000E+00  5.5404E+01
 ----------------------------------------------------------------------------------------------------------------------------------
 ----------------------------------------------------------------------------------------------------------------------------------

          step     eng_tot    temp_tot     eng_cfg     eng_src     eng_cou     eng_bnd     eng_ang     eng_dih     eng_tet
      time(ps)      eng_pv    temp_rot     vir_cfg     vir_src     vir_cou     vir_bnd     vir_ang     vir_con     vir_tet
      cpu  (s)      volume    temp_shl     eng_shl     vir_shl       alpha        beta       gamma     vir_pmf       press

 ----------------------------------------------------------------------------------------------------------------------------------
          9920 -1.1993E+06  9.3871E+01 -1.2038E+06  2.9365E+05 -1.4975E+06  0.0000E+00  2.4387E-03  0.0000E+00  0.0000E+00
       9.92000 -1.1846E+06  1.0935E+02 -5.6073E+04 -1.5527E+06  1.4966E+06  0.0000E+00 -2.3532E-02  0.0000E+00  0.0000E+00
        63.403  5.5682E+03  0.0000E+00  0.0000E+00  0.0000E+00  9.0000E+01  9.0000E+01  9.0000E+01  0.0000E+00  5.5673E+01

       rolling -1.1993E+06  9.8924E+01 -1.2039E+06  2.9362E+05 -1.4975E+06  0.0000E+00  2.4218E-03  0.0000E+00  0.0000E+00
      averages -1.1846E+06  1.0295E+02 -5.5977E+04 -1.5526E+06  1.4966E+06  0.0000E+00 -2.3380E-02  0.0000E+00  0.0000E+00
                5.5682E+03  0.0000E+00  0.0000E+00  0.0000E+00  9.0000E+01  9.0000E+01  9.0000E+01  0.0000E+00  5.5614E+01
 ----------------------------------------------------------------------------------------------------------------------------------
          9930 -1.1993E+06  9.6723E+01 -1.2038E+06  2.9367E+05 -1.4975E+06  0.0000E+00  2.3881E-03  0.0000E+00  0.0000E+00
       9.93000 -1.1845E+06  1.0903E+02 -5.6184E+04 -1.5528E+06  1.4966E+06  0.0000E+00 -2.3054E-02  0.0000E+00  0.0000E+00
        63.465  5.5682E+03  0.0000E+00  0.0000E+00  0.0000E+00  9.0000E+01  9.0000E+01  9.0000E+01  0.0000E+00  5.5802E+01

       rolling -1.1993E+06  9.8883E+01 -1.2039E+06  2.9368E+05 -1.4975E+06  0.0000E+00  2.4272E-03  0.0000E+00  0.0000E+00
      averages -1.1845E+06  1.0434E+02 -5.6192E+04 -1.5528E+06  1.4967E+06  0.0000E+00 -2.3430E-02  0.0000E+00  0.0000E+00
                5.5682E+03  0.0000E+00  0.0000E+00  0.0000E+00  9.0000E+01  9.0000E+01  9.0000E+01  0.0000E+00  5.5825E+01
 ----------------------------------------------------------------------------------------------------------------------------------
          9940 -1.1993E+06  9.5504E+01 -1.2038E+06  2.9377E+05 -1.4976E+06  0.0000E+00  2.4090E-03  0.0000E+00  0.0000E+00
       9.94000 -1.1844E+06  1.0826E+02 -5.6501E+04 -1.5532E+06  1.4967E+06  0.0000E+00 -2.3257E-02  0.0000E+00  0.0000E+00
        63.529  5.5682E+03  0.0000E+00  0.0000E+00  0.0000E+00  9.0000E+01  9.0000E+01  9.0000E+01  0.0000E+00  5.6104E+01

       rolling -1.1993E+06  9.8398E+01 -1.2039E+06  2.9372E+05 -1.4976E+06  0.0000E+00  2.4206E-03  0.0000E+00  0.0000E+00
      averages -1.1845E+06  1.0538E+02 -5.6331E+04 -1.5530E+06  1.4967E+06  0.0000E+00 -2.3366E-02  0.0000E+00  0.0000E+00
                5.5682E+03  0.0000E+00  0.0000E+00  0.0000E+00  9.0000E+01  9.0000E+01  9.0000E+01  0.0000E+00  5.5958E+01
 ----------------------------------------------------------------------------------------------------------------------------------
          9950 -1.1993E+06  9.6479E+01 -1.2038E+06  2.9380E+05 -1.4976E+06  0.0000E+00  2.4365E-03  0.0000E+00  0.0000E+00
       9.95000 -1.1844E+06  1.0778E+02 -5.6595E+04 -1.5533E+06  1.4968E+06  0.0000E+00 -2.3524E-02  0.0000E+00  0.0000E+00
        63.591  5.5682E+03  0.0000E+00  0.0000E+00  0.0000E+00  9.0000E+01  9.0000E+01  9.0000E+01  0.0000E+00  5.6203E+01

       rolling -1.1993E+06  9.8179E+01 -1.2038E+06  2.9374E+05 -1.4976E+06  0.0000E+00  2.4215E-03  0.0000E+00  0.0000E+00
      averages -1.1845E+06  1.0613E+02 -5.6387E+04 -1.5531E+06  1.4967E+06  0.0000E+00 -2.3375E-02  0.0000E+00  0.0000E+00
                5.5682E+03  0.0000E+00  0.0000E+00  0.0000E+00  9.0000E+01  9.0000E+01  9.0000E+01  0.0000E+00  5.6011E+01
 ----------------------------------------------------------------------------------------------------------------------------------
          9960 -1.1993E+06  1.0037E+02 -1.2039E+06  2.9371E+05 -1.4976E+06  0.0000E+00  2.4156E-03  0.0000E+00  0.0000E+00
       9.96000 -1.1845E+06  1.0684E+02 -5.6288E+04 -1.5530E+06  1.4967E+06  0.0000E+00 -2.3326E-02  0.0000E+00  0.0000E+00
        63.655  5.5682E+03  0.0000E+00  0.0000E+00  0.0000E+00  9.0000E+01  9.0000E+01  9.0000E+01  0.0000E+00  5.5930E+01

       rolling -1.1993E+06  9.7548E+01 -1.2038E+06  2.9373E+05 -1.4976E+06  0.0000E+00  2.4277E-03  0.0000E+00  0.0000E+00
      averages -1.1845E+06  1.0675E+02 -5.6352E+04 -1.5530E+06  1.4967E+06  0.0000E+00 -2.3433E-02  0.0000E+00  0.0000E+00
                5.5682E+03  0.0000E+00  0.0000E+00  0.0000E+00  9.0000E+01  9.0000E+01  9.0000E+01  0.0000E+00  5.5972E+01
 ----------------------------------------------------------------------------------------------------------------------------------
          9970 -1.1993E+06  9.8557E+01 -1.2038E+06  2.9380E+05 -1.4976E+06  0.0000E+00  2.4513E-03  0.0000E+00  0.0000E+00
       9.97000 -1.1844E+06  1.0503E+02 -5.6585E+04 -1.5533E+06  1.4968E+06  0.0000E+00 -2.3651E-02  0.0000E+00  0.0000E+00
        63.718  5.5682E+03  0.0000E+00  0.0000E+00  0.0000E+00  9.0000E+01  9.0000E+01  9.0000E+01  0.0000E+00  5.6208E+01

       rolling -1.1993E+06  9.7641E+01 -1.2038E+06  2.9370E+05 -1.4975E+06  0.0000E+00  2.4274E-03  0.0000E+00  0.0000E+00
      averages -1.1845E+06  1.0710E+02 -5.6263E+04 -1.5529E+06  1.4967E+06  0.0000E+00 -2.3431E-02  0.0000E+00  0.0000E+00
                5.5682E+03  0.0000E+00  0.0000E+00  0.0000E+00  9.0000E+01  9.0000E+01  9.0000E+01  0.0000E+00  5.5886E+01
 ----------------------------------------------------------------------------------------------------------------------------------
          9980 -1.1993E+06  1.0265E+02 -1.2039E+06  2.9391E+05 -1.4978E+06  0.0000E+00  2.4974E-03  0.0000E+00  0.0000E+00
       9.98000 -1.1843E+06  1.0336E+02 -5.6919E+04 -1.5538E+06  1.4969E+06  0.0000E+00 -2.4083E-02  0.0000E+00  0.0000E+00
        63.780  5.5682E+03  0.0000E+00  0.0000E+00  0.0000E+00  9.0000E+01  9.0000E+01  9.0000E+01  0.0000E+00  5.6565E+01

       rolling -1.1993E+06  9.7607E+01 -1.2038E+06  2.9370E+05 -1.4975E+06  0.0000E+00  2.4405E-03  0.0000E+00  0.0000E+00
      averages -1.1845E+06  1.0707E+02 -5.6242E+04 -1.5529E+06  1.4967E+06  0.0000E+00 -2.3555E-02  0.0000E+00  0.0000E+00
                5.5682E+03  0.0000E+00  0.0000E+00  0.0000E+00  9.0000E+01  9.0000E+01  9.0000E+01  0.0000E+00  5.5865E+01
 ----------------------------------------------------------------------------------------------------------------------------------
          9990 -1.1993E+06  9.9779E+01 -1.2038E+06  2.9374E+05 -1.4976E+06  0.0000E+00  2.3523E-03  0.0000E+00  0.0000E+00
       9.99000 -1.1845E+06  1.0063E+02 -5.6380E+04 -1.5531E+06  1.4967E+06  0.0000E+00 -2.2703E-02  0.0000E+00  0.0000E+00
        63.844  5.5682E+03  0.0000E+00  0.0000E+00  0.0000E+00  9.0000E+01  9.0000E+01  9.0000E+01  0.0000E+00  5.6016E+01

       rolling -1.1993E+06  9.7689E+01 -1.2038E+06  2.9370E+05 -1.4975E+06  0.0000E+00  2.4414E-03  0.0000E+00  0.0000E+00
      averages -1.1845E+06  1.0662E+02 -5.6244E+04 -1.5529E+06  1.4967E+06  0.0000E+00 -2.3561E-02  0.0000E+00  0.0000E+00
                5.5682E+03  0.0000E+00  0.0000E+00  0.0000E+00  9.0000E+01  9.0000E+01  9.0000E+01  0.0000E+00  5.5867E+01
 ----------------------------------------------------------------------------------------------------------------------------------
 ----------------------------------------------------------------------------------------------------------------------------------

          step     eng_tot    temp_tot     eng_cfg     eng_src     eng_cou     eng_bnd     eng_ang     eng_dih     eng_tet
      time(ps)      eng_pv    temp_rot     vir_cfg     vir_src     vir_cou     vir_bnd     vir_ang     vir_con     vir_tet
      cpu  (s)      volume    temp_shl     eng_shl     vir_shl       alpha        beta       gamma     vir_pmf       press

 ----------------------------------------------------------------------------------------------------------------------------------
         10000 -1.1993E+06  1.0620E+02 -1.2039E+06  2.9360E+05 -1.4975E+06  0.0000E+00  2.2972E-03  0.0000E+00  0.0000E+00
      10.00000 -1.1846E+06  9.9510E+01 -5.5937E+04 -1.5525E+06  1.4966E+06  0.0000E+00 -2.2182E-02  0.0000E+00  0.0000E+00
        63.906  5.5682E+03  0.0000E+00  0.0000E+00  0.0000E+00  9.0000E+01  9.0000E+01  9.0000E+01  0.0000E+00  5.5627E+01

       rolling -1.1993E+06  9.8331E+01 -1.2038E+06  2.9370E+05 -1.4975E+06  0.0000E+00  2.4209E-03  0.0000E+00  0.0000E+00
      averages -1.1845E+06  1.0600E+02 -5.6252E+04 -1.5529E+06  1.4967E+06  0.0000E+00 -2.3366E-02  0.0000E+00  0.0000E+00
                5.5682E+03  0.0000E+00  0.0000E+00  0.0000E+00  9.0000E+01  9.0000E+01  9.0000E+01  0.0000E+00  5.5880E+01
 ----------------------------------------------------------------------------------------------------------------------------------


 run terminating...  elapsed cpu time:       63.908 sec, job time:   100000.000 sec, close time:      100.000 sec



 sample of final configuration on node zero

        i       x(i)        y(i)        z(i)       vx(i)       vy(i)       vz(i)       fx(i)       fy(i)       fz(i)


        1  1.6567E+00 -1.2961E+00 -4.5322E+00 -1.0221E+00  1.6079E+00  2.7435E-02  8.0281E+03  2.7196E+01  7.2443E+03
       16  2.5129E+00  8.8097E+00 -6.5419E+00  1.6123E+00  8.7521E-01  1.8223E+00 -1.7733E+03  5.4136E+03 -1.4361E+03
       31 -6.2164E+00  2.5200E+00 -4.1893E+00  2.9032E-01  1.6070E+00 -1.8312E+00 -6.4612E+03  1.3271E+04 -6.7068E+03
       46 -3.8085E+00  6.5399E+00 -2.5053E+00  1.0510E+00 -1.9618E-01  2.1468E+00  8.7183E+03 -3.9853E+03  1.2726E+03
       61  7.6857E+00 -1.2313E+00  3.9530E-01  1.0695E+00  3.1029E+00 -3.9169E-01 -1.0541E+03 -2.0447E+03  8.1990E+03
       76  8.7090E+00 -6.6340E+00  2.2517E+00 -3.9168E+00 -1.1101E+00  1.5293E+00 -7.0335E+02 -1.1994E+04  5.8316E+02
       91 -8.6601E+00 -2.6900E+00  2.5634E+00  5.9829E-01  1.2104E+00 -2.3827E+00 -5.9081E+03  1.1366E+04  4.5953E+03
      106 -5.9624E+00  8.8441E+00 -4.0570E-01 -2.0365E+00 -4.1420E+00 -6.0425E+00 -1.0247E+04  3.4486E+03 -1.9233E+03
      121  2.6101E+00  3.0117E+00 -3.2842E+00 -1.3383E+00  2.3122E+00  5.1919E+00  1.2250E+04 -7.7310E+02  7.6195E+03
      136  8.2388E+00  7.0299E+00 -1.1953E+00  1.1516E-01  3.8075E+00  1.0874E-01  2.4593E+03  1.2614E+03 -3.4152E+03
      151 -1.2897E+00  8.5666E-01 -4.1451E+00  3.1636E+00  8.9106E-01 -1.8311E+00 -3.6535E+03  6.2632E+03 -2.2331E+02
      166 -3.9148E+00 -7.6240E+00 -1.5403E+00  4.0900E-01  1.6709E+00 -2.8989E-01  2.4668E+03  1.2282E+03  1.7883E+03
      181 -1.0051E+01  3.0107E+00 -2.6196E+00  2.7236E-01  6.8114E-02  6.9906E-01 -1.5057E+04 -2.3577E+03 -7.8284E+02
      196  7.5526E+00  8.9970E+00  3.3173E+00 -4.3772E-01 -6.9938E-01 -9.4747E-01  4.0029E+03 -2.7422E+03 -9.2985E+02
      211 -7.6767E+00  1.0008E+00  3.7140E+00  2.8068E+00 -1.6386E-01 -9.1594E-01 -4.7474E+03 -2.2902E+03 -1.0397E+04
      226 -4.0623E+00  6.6851E+00  6.3742E+00 -1.2400E+00 -5.6964E-01  3.0860E+00  9.0354E+03 -4.4512E+03 -1.1460E+03
      241  6.3486E+00 -9.3361E-01  4.1640E+00 -5.4960E-02 -1.5922E+00 -1.2745E+00 -6.8152E+02  1.0729E+04  2.8907E+03
      256  8.1721E+00 -1.0112E+01  1.2084E+00 -1.3667E+00 -3.2489E+00  1.0973E+00 -4.1786E+03  7.1053E+03 -9.5571E+03
      271 -6.0017E+00 -2.6390E+00  5.6179E+00 -3.5400E+00 -2.1158E+00 -2.2491E-01 -4.2179E+03 -5.6269E+03 -4.5304E+03
      286 -5.8828E+00  4.9634E+00  6.1700E+00 -4.6948E-01  3.0414E+00  7.3876E-01  4.2377E+02  6.6759E+03  4.8801E+03


 VNL skipping run statistics - skips per timestep: average   10.19 minimum    4 maximum   25


 run terminated after    10000 steps (    10.000 ps), final averages calculated over    10000 steps (    10.000 ps).


 ----------------------------------------------------------------------------------------------------------------------------------

          step     eng_tot    temp_tot     eng_cfg     eng_src     eng_cou     eng_bnd     eng_ang     eng_dih     eng_tet
      time(ps)      eng_pv    temp_rot     vir_cfg     vir_src     vir_cou     vir_bnd     vir_ang     vir_con     vir_tet
      cpu  (s)      volume    temp_shl     eng_shl     vir_shl       alpha        beta       gamma     vir_pmf       press

 ----------------------------------------------------------------------------------------------------------------------------------
         10000 -1.1993E+06  2.9535E+02 -1.2031E+06  2.9202E+05 -1.4952E+06  0.0000E+00  2.9576E-03  0.0000E+00  0.0000E+00
      10.00000 -1.1844E+06  4.2142E+02 -5.0963E+04 -1.5452E+06  1.4943E+06  0.0000E+00 -2.8586E-02  0.0000E+00  0.0000E+00
        63.912  5.5682E+03  0.0000E+00  0.0000E+00  0.0000E+00  9.0000E+01  9.0000E+01  9.0000E+01  0.0000E+00  5.2077E+01

       r.m.s.   4.0269E+00  1.9899E+02  7.1848E+02  1.2508E+03  1.8569E+03  0.0000E+00  5.4026E-04  0.0000E+00  0.0000E+00
      fluctu-   1.3164E+03  5.5942E+02  3.9304E+03  5.7646E+03  1.8518E+03  0.0000E+00  5.2351E-03  0.0000E+00  0.0000E+00
      ations    0.0000E+00  0.0000E+00  0.0000E+00  0.0000E+00  0.0000E+00  0.0000E+00  0.0000E+00  0.0000E+00  3.0191E+00
 ----------------------------------------------------------------------------------------------------------------------------------

 Extended energy:         2.7692E+03      r.m.s. fluctuations:    1.4279E+03

 ----------------------------------------------------------------------------------------------------------------------------------


            Approximate 3D Diffusion Coefficients and square root of MSDs

            atom         DC (10^-9 m^2 s^-1)   Sqrt[MSD] (Ang)

            Si                0.0000E+00          2.4914E-01
            O                 0.0000E+00          3.1332E-01
            C                 0.0000E+00          3.7910E+00
            H                 6.8496E-02          4.9096E+00


                Average pressure tensor  (katms)                              r.m.s. fluctuations

           4.9552E+01  1.1886E-02  3.2960E-02                          4.3669E+00  1.5103E+00  2.3588E+00
           1.1886E-02  5.3974E+01  8.5852E-03                          1.5103E+00  4.2621E+00  2.5153E+00
           3.2960E-02  8.5852E-03  5.2704E+01                          2.3588E+00  2.5153E+00  4.4299E+00

            trace/3    5.2077E+01



 time elapsed since job start:       63.912 sec



 *************************************************************************************************************************
 **************                                                                                             **************
 **************  Thank you for using the DL_POLY_4 package in your work.  Please, acknowledge our efforts   **************
 **************                                                                                             **************
 **************  by including the following references when publishing data obtained using DL_POLY_4:       **************
 **************                                                                                             **************
 **************  I.T. Todorov, W. Smith, K. Trachenko & M.T. Dove, `J. Mater. Chem.', 16, 1911-1918 (2006)  **************
 **************  I.J. Bush, I.T. Todorov & W. Smith, `Comp. Phys. Commun.', 175, 323-329 (2006)             **************
 **************                                                                                             **************
 *************************************************************************************************************************

