 ******************************************************************
 *************  stfc/ccp5  program  library  package  ** D ********
 *************  daresbury laboratory general purpose  *** L *******
 **         **  classical molecular dynamics program  **** \ ******
 ** DL_POLY **  authors:   i.t.todorov   &   w.smith  ***** P *****
 **         **  version:   4.09.1  /  november 2018   ****** O ****
 *************  execution on           1 process(es)  ******* L ***
 *************  contributors' list:                   ******** Y **
 *************  ------------------------------------  *************
 *************  i.j.bush, h.a.boateng, r.davidchak,   *************
 *************  m.a.seaton, a.v.brukhno, a.m.elena,   *************
 *************  s.l.daraszewicz,g.khara,s.t.murphy    *************
 ******************************************************************

 ******************************************************************
 **** birthday: Dec 16 2022 @ 15:29:49                         ****
 ****  machine: chip                                           ****
 ****  builder: Alistar OTTOCHIAN                              ****
 **** compiler: gfortran v8.5.0 20210514 (Red Hat 8.5.0-15)    ****
 ****      MPI: v3.1                                           ****
 **** MPI libs: Open MPI v3.0.0, package: Open MPI alistar@chi ****
 **** MPI libs: p Distribution, ident: 3.0.0, repo rev: v3.0.0 ****
 **** MPI libs: , Sep 12, 2017                                 ****
 **** executed: 2026-01-23  @  16:03:34.559  (GMT+01:00)       ****
 ******************************************************************

 ******************************************************************
 ****  ~~~~~~~~~~~~~~~~~~~~~~~~~~~~~~~~~~~~~~~~~~~~~~~~~~~~~~  ****
 ****  Please do cite `J. Mater. Chem.', 16, 1911-1918 (2006)  ****
 ****  ^^^^^^^^^^^^^^^^^^^^^^^^^^^^^^^^^^^^^^^^^^^^^^^^^^^^^^  ****
 ****  when publishing research data obtained using DL_POLY_4  ****
 ****  ^^^^^^^^^^^^^^^^^^^^^^^^^^^^^^^^^^^^^^^^^^^^^^^^^^^^^^  ****
 ******************************************************************

 HISTORY file is HISTORY.dlpolyhist

 I/O read method: parallel by using MPI-I/O (assumed)
 I/O readers (assumed)                   1
 I/O read batch size (assumed)     2000000
 I/O read buffer size (assumed)      20000
 I/O parallel read error checking off (assumed)

 I/O write method: parallel by using MPI-I/O (assumed)
 I/O write type: data sorting on (assumed)
 I/O writers (assumed)                   1
 I/O write batch size (assumed)    2000000
 I/O write buffer size (assumed)     20000
 I/O parallel write error checking off (assumed)

 *** warning - DD cutoff check: rcut=Max(rcut,rvdw,rmet,rkim,rcbnd,2.0_wp*rcter+1.0e-6_wp) ! ***

 warning issued     40

 *** warning - tentative cutoff reset to   6.500 Angstroms !!! ***



 node/domain decomposition (x,y,z):      1     1     1

 pure cutoff driven limit on largest possible decomposition:    18 nodes/domains (3,3,2)

 pure cutoff driven limit on largest balanced decomposition:     1 nodes/domains (1,1,1)

 cutoffs driven limit on largest possible decomposition:    18 nodes/domains (3,3,2)

 cutoffs driven limit on largest balanced decomposition:     1 nodes/domains (1,1,1)

 link-cell decomposition 1 (x,y,z):      3     3     2

 warning issued    100

 *** warning - primary link cell algorithm has a link cell dimension that is < 3 !!! ***
 *** DL_POLY_4 RUNNING IN LOW EFFICIENCY MODE !!! ***


 link-cell decomposition 2 (x,y,z):     10    10     6

 *** pre-scanning stage (set_bounds) DONE ***

 time elapsed since job start:        0.029 sec

 **********************************************************************************************************************************
 **********************************************************************************************************************************
 **********************************************************************************************************************************
 ************************     Silicalite simulation : Sauer model sans shell + Benzene                     ************************
 **********************************************************************************************************************************
 **********************************************************************************************************************************
 **********************************************************************************************************************************


 SIMULATION CONTROL PARAMETERS

 warning issued     35

 *** warning - DL_POLY_2/Classic directive 'delr - Verlet shell strip cutoff' defaulted to ***
 *** DL_POLY_4 directive 'rpad - real space cutoff padding option' ; rpad=Max(rpad,delr/4) !!! ***

 cutoff padding (Angs)               1.2500E-01

 vdw cutoff (Angs)                   6.5000E+00

 vdw force-shifting option on

 real space cutoff (Angs)            6.5000E+00

 Electrostatics : Smooth Particle Mesh Ewald
 Ewald sum precision                 1.0000E-06
 Ewald convergence parameter (A^-1)  5.0333E-01
 Ewald kmax1 kmax2 kmax3   (x2)    20   20   14
 DaFT adjusted kmax values (x2)    20   20   15
 B-spline interpolation order            8
 k-space evaluation interval (steps)     1

 density variation allowance (%)     1.0000E+01

 radomisation seeds supplied
 (seed1,seed2,seed3)               14    1 2022

 selected number of timesteps         1000

 simulation temperature (K)          3.0000E+02

 simulation pressure (katms)         0.0000E+00

 Integration : Velocity Verlet
 Ensemble : NVT Nose-Hoover
 thermostat relaxation time (ps)     1.0000E+00

 trajectory file option on
 trajectory file start                   0
 trajectory file interval             1000
 trajectory file info key                0

 data printing interval (steps)         10

 statistics file interval               10

 no strict option on
 *** Warning *** It skips printing inessential information in OUTPUT such as many warnings, FIELD
 *** wArning *** digested information and full iteration cycles information from CGM based routines!
 *** waRning *** However, it also assumes some, deemed safe, defaults for some specified as well as
 *** warNing *** unspecified by the user options, that may or may not be needed for the simulation to run!
 *** warnIng *** The defaults are deemed to deliver safer passage as well as optimal performance without
 *** warniNg *** sacrificing on accuracy!  While it may, by chance, help to pass previously failing runs
 *** warninG *** it may as well lead to a run failure without warnings!  Beware, avoid usage if uncertain!

 warning issued     36

 *** warning - DL_POLY_2/Classic directive 'mult(iple timestep)' defaulted to ***
 *** DL_POLY_4 directive 'infrequent k-space SPME evaluation' !!! ***


 clean start requested

 Extended Coulombic eXclusion : NO

 fixed simulation timestep (ps)      1.0000E-03

 data dumping interval (steps)        1000

 subcelling threshold density        5.0000E+01

 allocated job run time   (s)        1.0000E+05

 allocated job close time (s)        1.0000E+02


 SYSTEM SPECIFICATION

 energy units = kJ/mol


 number of molecular types               2


 molecular species type                  1

 name of species:             ZEOLITE ZSM5 (SILICALITE)               

 number of molecules                     1

 number of atoms/sites                 288

 atomic characteristics:

               site    name             mass         charge      repeat      freeze

                  1    Si            28.085500       4.000000        96         0
                 97    O             15.999400      -2.000000       192         0


 molecular species type                  2

 name of species:             BENZENE                                 

 number of molecules                     1

 number of atoms/sites                  12

 atomic characteristics:

               site    name             mass         charge      repeat      freeze

                  1    C             12.000000      -0.075000         6         0
                  7    H              1.008000       0.075000         6         0


 number of rigid bodies                  1

 rigid body details:

                  unit      size            indices

                     1        12         1         2         3         4         5         6         7         8         9        10
                                            11        12


 total number of molecules               2

 total number of sites                 300


 number of specified vdw potentials                5

       pair     atom 1  atom 2     key                              parameters

          1     Si      Si         buck             0.000000            0.300170            0.000000            0.000000            0.000000            0.000000            0.000000
          2     O       O          buck             0.000000            0.300170            0.000000            0.000000            0.000000            0.000000            0.000000
          3     Si      O          buck        149643.890000            0.300170            0.000000            0.000000            0.000000            0.000000            0.000000
          4     C       O          12-6       1335000.000000         1807.000000            0.000000            0.000000            0.000000            0.000000            0.000000
          5     H       O          12-6        159900.000000          510.800000            0.000000            0.000000            0.000000            0.000000            0.000000

 warning issued    120

 *** warning - unspecified atom-atom interactions set to zero !!! ***



 number of specified three-body potentials         1

    triplet     atom 1  atom 2  atom 3     key                      parameters

          1     O       Si      O          shrm       17.750400     109.466667       0.327690       0.327690       2.000000

 configuration file name: 

          Diffusion in Zeolites. ZSM5 (Silicate) Crystal Structure, Si(96)O(192) +


 selected image convention               2


 simulation cell vectors

       20.3183600000        0.0000000000        0.0000000000
        0.0000000000       20.1714600000        0.0000000000
        0.0000000000        0.0000000000       13.5858629500


 system volume            5568.17932579    

 *** all reading and connectivity checks DONE ***

 time elapsed since job start:        0.031 sec

 *** initialisation and haloing DONE ***

 time elapsed since job start:        0.032 sec

 //==============================================================\\
 ||                                                              ||
 ||           SUMMARY  OF  TOPOLOGICAL  DECOMPOSITION            ||
 ||                                                              ||
 ||--------------------------------------------------------------||
 ||  INTERACTION  OR  TYPE  |  GRAND TOTAL | Fully/Partly FROZEN ||
 ||-------------------------+--------------+---------------------||
 ||  all particles/sites    |         300  |  F            0     ||
 ||  free particles         |         288  |  F            0     ||
 ||  core-shell units       |           0  |  P            0     ||
 ||  constraint bond units  |           0  |  F            0     ||
 ||  PMF units              |           0  |  P         NONE     ||
 ||  rigid body units       |           1  |  F            0     ||
 ||  tethered atom units    |           0  |  F            0     ||
 ||  chemical bond units    |           0  |  F            0     ||
 ||  bond angle units       |           0  |  F            0     ||
 ||  dihedral angle units   |           0  |  F            0     ||
 ||  inversion angle units  |           0  |  F            0     ||
 \\==============================================================//


 *** bookkeeping DONE ***

 time elapsed since job start:        0.032 sec


 degrees of freedom break-down list
 ----------------------------------
 free particles                 864
 centre of mass                  -3
 non-periodicity                  0
 frozen free particles            0
 shell-pseudo                     0
 constrained                      0
 RB translational                 3
 RB rotational                    3
 ----------------------------------
 total (real)                   867

 *** temperature setting DONE ***

 time elapsed since job start:        0.033 sec


 sample of starting configuration on node zero

        i       x(i)        y(i)        z(i)       vx(i)       vy(i)       vz(i)


        1  1.4730E+00 -1.0837E+00 -4.4827E+00  4.5933E+00  1.5145E+00  4.0501E-01
       16  2.4713E+00  8.7049E+00 -6.4092E+00  5.2716E+00 -1.3794E+00 -3.6215E+00
       31 -6.2741E+00  2.6468E+00 -4.4810E+00 -4.4461E+00 -9.0610E-01 -3.4616E+00
       46 -3.7398E+00  6.5486E+00 -2.4718E+00  3.0051E+00  1.5488E+00  2.3605E+00
       61  7.7145E+00 -1.1333E+00  5.1512E-01 -3.9739E-01  1.0674E+00  2.5929E+00
       76  8.5453E+00 -6.5882E+00  2.2894E+00  5.3385E+00  3.0843E+00 -2.3282E-01
       91 -8.5965E+00 -2.5947E+00  2.1618E+00 -7.9262E-01 -2.5392E+00  2.9632E-01
      106 -5.9340E+00  8.8895E+00 -4.2166E-01  1.3664E+00 -4.6389E+00 -7.2297E-01
      121  2.6693E+00  2.9078E+00 -3.2592E+00 -2.9935E+00 -3.1727E+00 -1.9608E+00
      136  8.5363E+00  7.0068E+00 -1.0459E+00 -7.7038E+00 -5.2814E+00  1.2331E-01
      151 -1.4608E+00  1.0934E+00 -4.6261E+00  3.7387E+00 -7.2527E+00  7.8482E+00
      166 -3.7273E+00 -7.5298E+00 -1.7592E+00 -2.6794E+00 -6.6618E-01  1.5703E+00
      181 -9.9001E+00  2.8966E+00 -2.6548E+00  1.6815E+00  3.7945E+00 -1.7753E+00
      196  7.4963E+00  9.1911E+00  3.3953E+00 -9.8249E-01  5.2305E+00 -1.9525E+00
      211 -7.6045E+00  1.0725E+00  3.6447E+00 -3.3357E-01 -3.0481E+00 -2.4005E+00
      226 -3.9899E+00  6.7687E+00  6.2443E+00  6.0013E+00 -2.7718E+00  3.7986E+00
      241  6.8526E+00 -1.1248E+00  4.5092E+00 -5.4497E+00  3.6348E+00 -2.4671E-02
      256  8.3321E+00 -9.9013E+00  1.1942E+00  3.3133E+00 -5.5282E+00 -3.0019E+00
      271 -6.0414E+00 -2.4904E+00  5.4357E+00 -1.9064E+00  8.1201E-01  3.0838E+00
      286 -6.0678E+00  5.1972E+00  6.1045E+00  2.0457E+00  1.2110E+00  2.9968E+00



 time elapsed since job start:        0.034 sec

 forces evaluated at (re)start for VV integration...

 ----------------------------------------------------------------------------------------------------------------------------------

          step     eng_tot    temp_tot     eng_cfg     eng_src     eng_cou     eng_bnd     eng_ang     eng_dih     eng_tet
      time(ps)      eng_pv    temp_rot     vir_cfg     vir_src     vir_cou     vir_bnd     vir_ang     vir_con     vir_tet
      cpu  (s)      volume    temp_shl     eng_shl     vir_shl       alpha        beta       gamma     vir_pmf       press

 ----------------------------------------------------------------------------------------------------------------------------------
             0 -1.1993E+06  3.0000E+02 -1.2004E+06  2.8028E+05 -1.4807E+06  0.0000E+00  2.8395E-03  0.0000E+00  0.0000E+00
       0.00000 -1.1937E+06  3.0000E+02 -1.4581E+04 -1.4940E+06  1.4798E+06  0.0000E+00 -2.7618E-02  0.0000E+00  0.0000E+00
         0.059  5.5682E+03  0.0000E+00  0.0000E+00  0.0000E+00  9.0000E+01  9.0000E+01  9.0000E+01  0.0000E+00  1.6420E+01

       rolling  0.0000E+00  0.0000E+00  0.0000E+00  0.0000E+00  0.0000E+00  0.0000E+00  0.0000E+00  0.0000E+00  0.0000E+00
      averages  0.0000E+00  0.0000E+00  0.0000E+00  0.0000E+00  0.0000E+00  0.0000E+00  0.0000E+00  0.0000E+00  0.0000E+00
                0.0000E+00  0.0000E+00  0.0000E+00  0.0000E+00  0.0000E+00  0.0000E+00  0.0000E+00  0.0000E+00  0.0000E+00
 ----------------------------------------------------------------------------------------------------------------------------------
 ----------------------------------------------------------------------------------------------------------------------------------

          step     eng_tot    temp_tot     eng_cfg     eng_src     eng_cou     eng_bnd     eng_ang     eng_dih     eng_tet
      time(ps)      eng_pv    temp_rot     vir_cfg     vir_src     vir_cou     vir_bnd     vir_ang     vir_con     vir_tet
      cpu  (s)      volume    temp_shl     eng_shl     vir_shl       alpha        beta       gamma     vir_pmf       press

 ----------------------------------------------------------------------------------------------------------------------------------
             1 -1.1993E+06  3.1456E+02 -1.2005E+06  2.8042E+05 -1.4809E+06  0.0000E+00  2.8277E-03  0.0000E+00  0.0000E+00
       0.00100 -1.1936E+06  3.1019E+02 -1.5034E+04 -1.4947E+06  1.4800E+06  0.0000E+00 -2.7507E-02  0.0000E+00  0.0000E+00
         0.088  5.5682E+03  0.0000E+00  0.0000E+00  0.0000E+00  9.0000E+01  9.0000E+01  9.0000E+01  0.0000E+00  1.6966E+01

       rolling -1.1993E+06  3.1456E+02 -1.2005E+06  2.8042E+05 -1.4809E+06  0.0000E+00  2.8277E-03  0.0000E+00  0.0000E+00
      averages -1.1936E+06  3.1019E+02 -1.5034E+04 -1.4947E+06  1.4800E+06  0.0000E+00 -2.7507E-02  0.0000E+00  0.0000E+00
                5.5682E+03  0.0000E+00  0.0000E+00  0.0000E+00  9.0000E+01  9.0000E+01  9.0000E+01  0.0000E+00  1.6966E+01
 ----------------------------------------------------------------------------------------------------------------------------------

 cutoff padding reset from  0.12 Angs to  0.27 Angs

            10 -1.1993E+06  6.9659E+02 -1.2018E+06  2.8697E+05 -1.4888E+06  0.0000E+00  3.5678E-03  0.0000E+00  0.0000E+00
       0.01000 -1.1860E+06  3.8404E+02 -3.5100E+04 -1.5227E+06  1.4879E+06  0.0000E+00 -3.4550E-02  0.0000E+00  0.0000E+00
         0.272  5.5682E+03  0.0000E+00  0.0000E+00  0.0000E+00  9.0000E+01  9.0000E+01  9.0000E+01  0.0000E+00  3.9353E+01

       rolling -1.1993E+06  5.4857E+02 -1.2013E+06  2.8314E+05 -1.4845E+06  0.0000E+00  3.0511E-03  0.0000E+00  0.0000E+00
      averages -1.1902E+06  3.5012E+02 -2.3343E+04 -1.5066E+06  1.4836E+06  0.0000E+00 -2.9643E-02  0.0000E+00  0.0000E+00
                5.5682E+03  0.0000E+00  0.0000E+00  0.0000E+00  9.0000E+01  9.0000E+01  9.0000E+01  0.0000E+00  2.6772E+01
 ----------------------------------------------------------------------------------------------------------------------------------
            20 -1.1993E+06  7.9158E+02 -1.2022E+06  2.9289E+05 -1.4951E+06  0.0000E+00  3.9529E-03  0.0000E+00  0.0000E+00
       0.02000 -1.1792E+06  4.3666E+02 -5.4824E+04 -1.5487E+06  1.4942E+06  0.0000E+00 -3.8190E-02  0.0000E+00  0.0000E+00
         0.474  5.5682E+03  0.0000E+00  0.0000E+00  0.0000E+00  9.0000E+01  9.0000E+01  9.0000E+01  0.0000E+00  5.9373E+01

       rolling -1.1993E+06  6.5349E+02 -1.2017E+06  2.8685E+05 -1.4885E+06  0.0000E+00  3.5279E-03  0.0000E+00  0.0000E+00
      averages -1.1860E+06  3.8164E+02 -3.5165E+04 -1.5225E+06  1.4877E+06  0.0000E+00 -3.4165E-02  0.0000E+00  0.0000E+00
                5.5682E+03  0.0000E+00  0.0000E+00  0.0000E+00  9.0000E+01  9.0000E+01  9.0000E+01  0.0000E+00  3.9111E+01
 ----------------------------------------------------------------------------------------------------------------------------------
            30 -1.1993E+06  6.7746E+02 -1.2018E+06  2.9584E+05 -1.4976E+06  0.0000E+00  4.5212E-03  0.0000E+00  0.0000E+00
       0.03000 -1.1762E+06  4.8625E+02 -6.4573E+04 -1.5611E+06  1.4968E+06  0.0000E+00 -4.3699E-02  0.0000E+00  0.0000E+00
         0.610  5.5682E+03  0.0000E+00  0.0000E+00  0.0000E+00  9.0000E+01  9.0000E+01  9.0000E+01  0.0000E+00  6.8130E+01

       rolling -1.1993E+06  6.6700E+02 -1.2017E+06  2.8948E+05 -1.4912E+06  0.0000E+00  3.7143E-03  0.0000E+00  0.0000E+00
      averages -1.1831E+06  4.0973E+02 -4.3805E+04 -1.5339E+06  1.4903E+06  0.0000E+00 -3.5948E-02  0.0000E+00  0.0000E+00
                5.5682E+03  0.0000E+00  0.0000E+00  0.0000E+00  9.0000E+01  9.0000E+01  9.0000E+01  0.0000E+00  4.7683E+01
 ----------------------------------------------------------------------------------------------------------------------------------
            40 -1.1993E+06  6.9208E+02 -1.2018E+06  2.9532E+05 -1.4972E+06  0.0000E+00  5.3585E-03  0.0000E+00  0.0000E+00
       0.04000 -1.1767E+06  4.9345E+02 -6.2797E+04 -1.5589E+06  1.4963E+06  0.0000E+00 -5.1724E-02  0.0000E+00  0.0000E+00
         0.810  5.5682E+03  0.0000E+00  0.0000E+00  0.0000E+00  9.0000E+01  9.0000E+01  9.0000E+01  0.0000E+00  6.6490E+01

       rolling -1.1993E+06  6.7071E+02 -1.2018E+06  2.9109E+05 -1.4928E+06  0.0000E+00  4.0899E-03  0.0000E+00  0.0000E+00
      averages -1.1814E+06  4.3071E+02 -4.9034E+04 -1.5407E+06  1.4920E+06  0.0000E+00 -3.9552E-02  0.0000E+00  0.0000E+00
                5.5682E+03  0.0000E+00  0.0000E+00  0.0000E+00  9.0000E+01  9.0000E+01  9.0000E+01  0.0000E+00  5.2838E+01
 ----------------------------------------------------------------------------------------------------------------------------------
            50 -1.1993E+06  7.0613E+02 -1.2019E+06  2.9108E+05 -1.4930E+06  0.0000E+00  3.5055E-03  0.0000E+00  0.0000E+00
       0.05000 -1.1814E+06  4.9861E+02 -4.8852E+04 -1.5407E+06  1.4921E+06  0.0000E+00 -3.3943E-02  0.0000E+00  0.0000E+00
         1.028  5.5682E+03  0.0000E+00  0.0000E+00  0.0000E+00  9.0000E+01  9.0000E+01  9.0000E+01  0.0000E+00  5.2908E+01

       rolling -1.1993E+06  6.7883E+02 -1.2018E+06  2.9155E+05 -1.4933E+06  0.0000E+00  4.1417E-03  0.0000E+00  0.0000E+00
      averages -1.1809E+06  4.4310E+02 -5.0474E+04 -1.5427E+06  1.4925E+06  0.0000E+00 -4.0047E-02  0.0000E+00  0.0000E+00
                5.5682E+03  0.0000E+00  0.0000E+00  0.0000E+00  9.0000E+01  9.0000E+01  9.0000E+01  0.0000E+00  5.4309E+01
 ----------------------------------------------------------------------------------------------------------------------------------
            60 -1.1993E+06  6.4874E+02 -1.2017E+06  2.8818E+05 -1.4899E+06  0.0000E+00  3.3730E-03  0.0000E+00  0.0000E+00
       0.06000 -1.1848E+06  6.4582E+02 -3.9034E+04 -1.5277E+06  1.4890E+06  0.0000E+00 -3.2679E-02  0.0000E+00  0.0000E+00
         1.239  5.5682E+03  0.0000E+00  0.0000E+00  0.0000E+00  9.0000E+01  9.0000E+01  9.0000E+01  0.0000E+00  4.2867E+01

       rolling -1.1993E+06  6.7759E+02 -1.2018E+06  2.9115E+05 -1.4929E+06  0.0000E+00  3.9951E-03  0.0000E+00  0.0000E+00
      averages -1.1813E+06  4.6215E+02 -4.9124E+04 -1.5409E+06  1.4921E+06  0.0000E+00 -3.8641E-02  0.0000E+00  0.0000E+00
                5.5682E+03  0.0000E+00  0.0000E+00  0.0000E+00  9.0000E+01  9.0000E+01  9.0000E+01  0.0000E+00  5.2974E+01
 ----------------------------------------------------------------------------------------------------------------------------------
            70 -1.1993E+06  6.2048E+02 -1.2016E+06  2.8768E+05 -1.4893E+06  0.0000E+00  3.5239E-03  0.0000E+00  0.0000E+00
       0.07000 -1.1853E+06  1.2553E+03 -3.7599E+04 -1.5256E+06  1.4884E+06  0.0000E+00 -3.4079E-02  0.0000E+00  0.0000E+00
         1.466  5.5682E+03  0.0000E+00  0.0000E+00  0.0000E+00  9.0000E+01  9.0000E+01  9.0000E+01  0.0000E+00  4.1245E+01

       rolling -1.1993E+06  6.7252E+02 -1.2018E+06  2.9064E+05 -1.4924E+06  0.0000E+00  3.9343E-03  0.0000E+00  0.0000E+00
      averages -1.1819E+06  5.2918E+02 -4.7434E+04 -1.5387E+06  1.4915E+06  0.0000E+00 -3.8056E-02  0.0000E+00  0.0000E+00
                5.5682E+03  0.0000E+00  0.0000E+00  0.0000E+00  9.0000E+01  9.0000E+01  9.0000E+01  0.0000E+00  5.1279E+01
 ----------------------------------------------------------------------------------------------------------------------------------
 ----------------------------------------------------------------------------------------------------------------------------------

          step     eng_tot    temp_tot     eng_cfg     eng_src     eng_cou     eng_bnd     eng_ang     eng_dih     eng_tet
      time(ps)      eng_pv    temp_rot     vir_cfg     vir_src     vir_cou     vir_bnd     vir_ang     vir_con     vir_tet
      cpu  (s)      volume    temp_shl     eng_shl     vir_shl       alpha        beta       gamma     vir_pmf       press

 ----------------------------------------------------------------------------------------------------------------------------------
            80 -1.1993E+06  7.2133E+02 -1.2020E+06  2.8905E+05 -1.4910E+06  0.0000E+00  3.2278E-03  0.0000E+00  0.0000E+00
       0.08000 -1.1838E+06  1.9075E+03 -4.1621E+04 -1.5316E+06  1.4901E+06  0.0000E+00 -3.1259E-02  0.0000E+00  0.0000E+00
         1.681  5.5682E+03  0.0000E+00  0.0000E+00  0.0000E+00  9.0000E+01  9.0000E+01  9.0000E+01  0.0000E+00  4.5887E+01

       rolling -1.1993E+06  6.7394E+02 -1.2018E+06  2.9034E+05 -1.4921E+06  0.0000E+00  3.8487E-03  0.0000E+00  0.0000E+00
      averages -1.1823E+06  6.7108E+02 -4.6397E+04 -1.5374E+06  1.4912E+06  0.0000E+00 -3.7231E-02  0.0000E+00  0.0000E+00
                5.5682E+03  0.0000E+00  0.0000E+00  0.0000E+00  9.0000E+01  9.0000E+01  9.0000E+01  0.0000E+00  5.0269E+01
 ----------------------------------------------------------------------------------------------------------------------------------
            90 -1.1993E+06  7.6560E+02 -1.2021E+06  2.9178E+05 -1.4939E+06  0.0000E+00  4.2224E-03  0.0000E+00  0.0000E+00
       0.09000 -1.1807E+06  2.0248E+03 -5.0640E+04 -1.5435E+06  1.4930E+06  0.0000E+00 -4.0742E-02  0.0000E+00  0.0000E+00
         1.908  5.5682E+03  0.0000E+00  0.0000E+00  0.0000E+00  9.0000E+01  9.0000E+01  9.0000E+01  0.0000E+00  5.5047E+01

       rolling -1.1993E+06  6.7714E+02 -1.2018E+06  2.9039E+05 -1.4922E+06  0.0000E+00  3.8418E-03  0.0000E+00  0.0000E+00
      averages -1.1822E+06  8.1836E+02 -4.6496E+04 -1.5375E+06  1.4913E+06  0.0000E+00 -3.7159E-02  0.0000E+00  0.0000E+00
                5.5682E+03  0.0000E+00  0.0000E+00  0.0000E+00  9.0000E+01  9.0000E+01  9.0000E+01  0.0000E+00  5.0384E+01
 ----------------------------------------------------------------------------------------------------------------------------------
           100 -1.1993E+06  6.9318E+02 -1.2019E+06  2.9362E+05 -1.4955E+06  0.0000E+00  4.4471E-03  0.0000E+00  0.0000E+00
       0.10000 -1.1788E+06  1.9875E+03 -5.6801E+04 -1.5513E+06  1.4946E+06  0.0000E+00 -4.2951E-02  0.0000E+00  0.0000E+00
         2.109  5.5682E+03  0.0000E+00  0.0000E+00  0.0000E+00  9.0000E+01  9.0000E+01  9.0000E+01  0.0000E+00  6.0580E+01

       rolling -1.1993E+06  6.8246E+02 -1.2018E+06  2.9066E+05 -1.4925E+06  0.0000E+00  3.9007E-03  0.0000E+00  0.0000E+00
      averages -1.1819E+06  9.3769E+02 -4.7332E+04 -1.5387E+06  1.4916E+06  0.0000E+00 -3.7716E-02  0.0000E+00  0.0000E+00
                5.5682E+03  0.0000E+00  0.0000E+00  0.0000E+00  9.0000E+01  9.0000E+01  9.0000E+01  0.0000E+00  5.1239E+01
 ----------------------------------------------------------------------------------------------------------------------------------
           110 -1.1993E+06  6.2812E+02 -1.2016E+06  2.9297E+05 -1.4946E+06  0.0000E+00  3.9387E-03  0.0000E+00  0.0000E+00
       0.11000 -1.1797E+06  1.8053E+03 -5.4662E+04 -1.5483E+06  1.4937E+06  0.0000E+00 -3.8158E-02  0.0000E+00  0.0000E+00
         2.216  5.5682E+03  0.0000E+00  0.0000E+00  0.0000E+00  9.0000E+01  9.0000E+01  9.0000E+01  0.0000E+00  5.8025E+01

       rolling -1.1993E+06  6.9498E+02 -1.2019E+06  2.9166E+05 -1.4935E+06  0.0000E+00  4.0160E-03  0.0000E+00  0.0000E+00
      averages -1.1808E+06  1.0932E+03 -5.0556E+04 -1.5430E+06  1.4926E+06  0.0000E+00 -3.8821E-02  0.0000E+00  0.0000E+00
                5.5682E+03  0.0000E+00  0.0000E+00  0.0000E+00  9.0000E+01  9.0000E+01  9.0000E+01  0.0000E+00  5.4487E+01
 ----------------------------------------------------------------------------------------------------------------------------------
           120 -1.1993E+06  6.6029E+02 -1.2018E+06  2.9131E+05 -1.4931E+06  0.0000E+00  3.6535E-03  0.0000E+00  0.0000E+00
       0.12000 -1.1813E+06  1.3303E+03 -4.9648E+04 -1.5415E+06  1.4922E+06  0.0000E+00 -3.5314E-02  0.0000E+00  0.0000E+00
         2.389  5.5682E+03  0.0000E+00  0.0000E+00  0.0000E+00  9.0000E+01  9.0000E+01  9.0000E+01  0.0000E+00  5.3345E+01

       rolling -1.1993E+06  6.8624E+02 -1.2018E+06  2.9180E+05 -1.4936E+06  0.0000E+00  3.9849E-03  0.0000E+00  0.0000E+00
      averages -1.1807E+06  1.2094E+03 -5.1017E+04 -1.5436E+06  1.4928E+06  0.0000E+00 -3.8528E-02  0.0000E+00  0.0000E+00
                5.5682E+03  0.0000E+00  0.0000E+00  0.0000E+00  9.0000E+01  9.0000E+01  9.0000E+01  0.0000E+00  5.4875E+01
 ----------------------------------------------------------------------------------------------------------------------------------
           130 -1.1993E+06  6.6281E+02 -1.2018E+06  2.8911E+05 -1.4909E+06  0.0000E+00  3.6387E-03  0.0000E+00  0.0000E+00
       0.13000 -1.1836E+06  5.8347E+02 -4.2714E+04 -1.5321E+06  1.4900E+06  0.0000E+00 -3.5226E-02  0.0000E+00  0.0000E+00
         2.509  5.5682E+03  0.0000E+00  0.0000E+00  0.0000E+00  9.0000E+01  9.0000E+01  9.0000E+01  0.0000E+00  4.6579E+01

       rolling -1.1993E+06  6.8236E+02 -1.2018E+06  2.9134E+05 -1.4932E+06  0.0000E+00  3.9485E-03  0.0000E+00  0.0000E+00
      averages -1.1812E+06  1.2544E+03 -4.9511E+04 -1.5416E+06  1.4923E+06  0.0000E+00 -3.8175E-02  0.0000E+00  0.0000E+00
                5.5682E+03  0.0000E+00  0.0000E+00  0.0000E+00  9.0000E+01  9.0000E+01  9.0000E+01  0.0000E+00  5.3369E+01
 ----------------------------------------------------------------------------------------------------------------------------------
           140 -1.1993E+06  6.1634E+02 -1.2016E+06  2.8725E+05 -1.4889E+06  0.0000E+00  3.3698E-03  0.0000E+00  0.0000E+00
       0.14000 -1.1857E+06  3.4229E+02 -3.6746E+04 -1.5243E+06  1.4880E+06  0.0000E+00 -3.2629E-02  0.0000E+00  0.0000E+00
         2.742  5.5682E+03  0.0000E+00  0.0000E+00  0.0000E+00  9.0000E+01  9.0000E+01  9.0000E+01  0.0000E+00  4.0400E+01

       rolling -1.1993E+06  6.7582E+02 -1.2018E+06  2.9056E+05 -1.4924E+06  0.0000E+00  3.7700E-03  0.0000E+00  0.0000E+00
      averages -1.1821E+06  1.2445E+03 -4.6974E+04 -1.5382E+06  1.4915E+06  0.0000E+00 -3.6464E-02  0.0000E+00  0.0000E+00
                5.5682E+03  0.0000E+00  0.0000E+00  0.0000E+00  9.0000E+01  9.0000E+01  9.0000E+01  0.0000E+00  5.0833E+01
 ----------------------------------------------------------------------------------------------------------------------------------
           150 -1.1993E+06  6.6538E+02 -1.2018E+06  2.8870E+05 -1.4905E+06  0.0000E+00  4.0070E-03  0.0000E+00  0.0000E+00
       0.15000 -1.1842E+06  4.5860E+02 -4.0804E+04 -1.5301E+06  1.4896E+06  0.0000E+00 -3.8707E-02  0.0000E+00  0.0000E+00
         2.950  5.5682E+03  0.0000E+00  0.0000E+00  0.0000E+00  9.0000E+01  9.0000E+01  9.0000E+01  0.0000E+00  4.4726E+01

       rolling -1.1993E+06  6.7039E+02 -1.2018E+06  2.9001E+05 -1.4918E+06  0.0000E+00  3.6995E-03  0.0000E+00  0.0000E+00
      averages -1.1827E+06  1.2350E+03 -4.5183E+04 -1.5358E+06  1.4909E+06  0.0000E+00 -3.5784E-02  0.0000E+00  0.0000E+00
                5.5682E+03  0.0000E+00  0.0000E+00  0.0000E+00  9.0000E+01  9.0000E+01  9.0000E+01  0.0000E+00  4.9038E+01
 ----------------------------------------------------------------------------------------------------------------------------------
 ----------------------------------------------------------------------------------------------------------------------------------

          step     eng_tot    temp_tot     eng_cfg     eng_src     eng_cou     eng_bnd     eng_ang     eng_dih     eng_tet
      time(ps)      eng_pv    temp_rot     vir_cfg     vir_src     vir_cou     vir_bnd     vir_ang     vir_con     vir_tet
      cpu  (s)      volume    temp_shl     eng_shl     vir_shl       alpha        beta       gamma     vir_pmf       press

 ----------------------------------------------------------------------------------------------------------------------------------
           160 -1.1993E+06  6.9624E+02 -1.2019E+06  2.8943E+05 -1.4914E+06  0.0000E+00  3.8466E-03  0.0000E+00  0.0000E+00
       0.16000 -1.1834E+06  6.5424E+02 -4.3137E+04 -1.5333E+06  1.4905E+06  0.0000E+00 -3.7243E-02  0.0000E+00  0.0000E+00
         3.178  5.5682E+03  0.0000E+00  0.0000E+00  0.0000E+00  9.0000E+01  9.0000E+01  9.0000E+01  0.0000E+00  4.7228E+01

       rolling -1.1993E+06  6.7156E+02 -1.2018E+06  2.9002E+05 -1.4918E+06  0.0000E+00  3.7822E-03  0.0000E+00  0.0000E+00
      averages -1.1827E+06  1.2351E+03 -4.5193E+04 -1.5358E+06  1.4909E+06  0.0000E+00 -3.6576E-02  0.0000E+00  0.0000E+00
                5.5682E+03  0.0000E+00  0.0000E+00  0.0000E+00  9.0000E+01  9.0000E+01  9.0000E+01  0.0000E+00  4.9056E+01
 ----------------------------------------------------------------------------------------------------------------------------------
           170 -1.1993E+06  6.5832E+02 -1.2018E+06  2.9011E+05 -1.4919E+06  0.0000E+00  3.7294E-03  0.0000E+00  0.0000E+00
       0.17000 -1.1826E+06  1.0137E+03 -4.5811E+04 -1.5365E+06  1.4910E+06  0.0000E+00 -3.6134E-02  0.0000E+00  0.0000E+00
         3.357  5.5682E+03  0.0000E+00  0.0000E+00  0.0000E+00  9.0000E+01  9.0000E+01  9.0000E+01  0.0000E+00  4.9575E+01

       rolling -1.1993E+06  6.7342E+02 -1.2018E+06  2.9021E+05 -1.4920E+06  0.0000E+00  3.7878E-03  0.0000E+00  0.0000E+00
      averages -1.1825E+06  1.2253E+03 -4.5866E+04 -1.5367E+06  1.4911E+06  0.0000E+00 -3.6635E-02  0.0000E+00  0.0000E+00
                5.5682E+03  0.0000E+00  0.0000E+00  0.0000E+00  9.0000E+01  9.0000E+01  9.0000E+01  0.0000E+00  4.9730E+01
 ----------------------------------------------------------------------------------------------------------------------------------
           180 -1.1993E+06  6.4093E+02 -1.2017E+06  2.9083E+05 -1.4926E+06  0.0000E+00  4.5998E-03  0.0000E+00  0.0000E+00
       0.18000 -1.1818E+06  1.5639E+03 -4.8230E+04 -1.5397E+06  1.4917E+06  0.0000E+00 -4.4499E-02  0.0000E+00  0.0000E+00
         3.586  5.5682E+03  0.0000E+00  0.0000E+00  0.0000E+00  9.0000E+01  9.0000E+01  9.0000E+01  0.0000E+00  5.1811E+01

       rolling -1.1993E+06  6.7079E+02 -1.2018E+06  2.9046E+05 -1.4923E+06  0.0000E+00  3.8956E-03  0.0000E+00  0.0000E+00
      averages -1.1822E+06  1.1890E+03 -4.6712E+04 -1.5378E+06  1.4914E+06  0.0000E+00 -3.7677E-02  0.0000E+00  0.0000E+00
                5.5682E+03  0.0000E+00  0.0000E+00  0.0000E+00  9.0000E+01  9.0000E+01  9.0000E+01  0.0000E+00  5.0542E+01
 ----------------------------------------------------------------------------------------------------------------------------------
           190 -1.1993E+06  6.3103E+02 -1.2017E+06  2.9001E+05 -1.4917E+06  0.0000E+00  3.3997E-03  0.0000E+00  0.0000E+00
       0.19000 -1.1828E+06  2.3715E+03 -4.5316E+04 -1.5360E+06  1.4909E+06  0.0000E+00 -3.2953E-02  0.0000E+00  0.0000E+00
         3.796  5.5682E+03  0.0000E+00  0.0000E+00  0.0000E+00  9.0000E+01  9.0000E+01  9.0000E+01  0.0000E+00  4.8862E+01

       rolling -1.1993E+06  6.6440E+02 -1.2018E+06  2.9045E+05 -1.4922E+06  0.0000E+00  3.9152E-03  0.0000E+00  0.0000E+00
      averages -1.1822E+06  1.1887E+03 -4.6739E+04 -1.5378E+06  1.4914E+06  0.0000E+00 -3.7874E-02  0.0000E+00  0.0000E+00
                5.5682E+03  0.0000E+00  0.0000E+00  0.0000E+00  9.0000E+01  9.0000E+01  9.0000E+01  0.0000E+00  5.0524E+01
 ----------------------------------------------------------------------------------------------------------------------------------
           200 -1.1993E+06  6.8294E+02 -1.2019E+06  2.8928E+05 -1.4912E+06  0.0000E+00  3.6182E-03  0.0000E+00  0.0000E+00
       0.20000 -1.1837E+06  2.8444E+03 -4.2472E+04 -1.5327E+06  1.4903E+06  0.0000E+00 -3.5045E-02  0.0000E+00  0.0000E+00
         4.023  5.5682E+03  0.0000E+00  0.0000E+00  0.0000E+00  9.0000E+01  9.0000E+01  9.0000E+01  0.0000E+00  4.6428E+01

       rolling -1.1993E+06  6.5728E+02 -1.2018E+06  2.9007E+05 -1.4918E+06  0.0000E+00  3.8063E-03  0.0000E+00  0.0000E+00
      averages -1.1827E+06  1.2565E+03 -4.5539E+04 -1.5362E+06  1.4910E+06  0.0000E+00 -3.6842E-02  0.0000E+00  0.0000E+00
                5.5682E+03  0.0000E+00  0.0000E+00  0.0000E+00  9.0000E+01  9.0000E+01  9.0000E+01  0.0000E+00  4.9295E+01
 ----------------------------------------------------------------------------------------------------------------------------------
           210 -1.1993E+06  7.0540E+02 -1.2020E+06  2.8857E+05 -1.4906E+06  0.0000E+00  3.8894E-03  0.0000E+00  0.0000E+00
       0.21000 -1.1845E+06  2.7659E+03 -3.9906E+04 -1.5295E+06  1.4897E+06  0.0000E+00 -3.7522E-02  0.0000E+00  0.0000E+00
         4.235  5.5682E+03  0.0000E+00  0.0000E+00  0.0000E+00  9.0000E+01  9.0000E+01  9.0000E+01  0.0000E+00  4.4072E+01

       rolling -1.1993E+06  6.5919E+02 -1.2018E+06  2.8965E+05 -1.4914E+06  0.0000E+00  3.7811E-03  0.0000E+00  0.0000E+00
      averages -1.1831E+06  1.3493E+03 -4.4117E+04 -1.5344E+06  1.4906E+06  0.0000E+00 -3.6592E-02  0.0000E+00  0.0000E+00
                5.5682E+03  0.0000E+00  0.0000E+00  0.0000E+00  9.0000E+01  9.0000E+01  9.0000E+01  0.0000E+00  4.7911E+01
 ----------------------------------------------------------------------------------------------------------------------------------
           220 -1.1993E+06  6.5049E+02 -1.2018E+06  2.8771E+05 -1.4895E+06  0.0000E+00  3.1449E-03  0.0000E+00  0.0000E+00
       0.22000 -1.1855E+06  2.4038E+03 -3.7433E+04 -1.5260E+06  1.4887E+06  0.0000E+00 -3.0482E-02  0.0000E+00  0.0000E+00
         4.447  5.5682E+03  0.0000E+00  0.0000E+00  0.0000E+00  9.0000E+01  9.0000E+01  9.0000E+01  0.0000E+00  4.1266E+01

       rolling -1.1993E+06  6.5994E+02 -1.2018E+06  2.8924E+05 -1.4910E+06  0.0000E+00  3.7511E-03  0.0000E+00  0.0000E+00
      averages -1.1836E+06  1.4498E+03 -4.2746E+04 -1.5326E+06  1.4902E+06  0.0000E+00 -3.6295E-02  0.0000E+00  0.0000E+00
                5.5682E+03  0.0000E+00  0.0000E+00  0.0000E+00  9.0000E+01  9.0000E+01  9.0000E+01  0.0000E+00  4.6569E+01
 ----------------------------------------------------------------------------------------------------------------------------------
           230 -1.1993E+06  6.7565E+02 -1.2019E+06  2.9024E+05 -1.4922E+06  0.0000E+00  3.9497E-03  0.0000E+00  0.0000E+00
       0.23000 -1.1828E+06  1.9431E+03 -4.5275E+04 -1.5364E+06  1.4913E+06  0.0000E+00 -3.8210E-02  0.0000E+00  0.0000E+00
         4.671  5.5682E+03  0.0000E+00  0.0000E+00  0.0000E+00  9.0000E+01  9.0000E+01  9.0000E+01  0.0000E+00  4.9148E+01

       rolling -1.1993E+06  6.6174E+02 -1.2018E+06  2.8913E+05 -1.4910E+06  0.0000E+00  3.7285E-03  0.0000E+00  0.0000E+00
      averages -1.1838E+06  1.5740E+03 -4.2287E+04 -1.5321E+06  1.4901E+06  0.0000E+00 -3.6085E-02  0.0000E+00  0.0000E+00
                5.5682E+03  0.0000E+00  0.0000E+00  0.0000E+00  9.0000E+01  9.0000E+01  9.0000E+01  0.0000E+00  4.6128E+01
 ----------------------------------------------------------------------------------------------------------------------------------
 ----------------------------------------------------------------------------------------------------------------------------------

          step     eng_tot    temp_tot     eng_cfg     eng_src     eng_cou     eng_bnd     eng_ang     eng_dih     eng_tet
      time(ps)      eng_pv    temp_rot     vir_cfg     vir_src     vir_cou     vir_bnd     vir_ang     vir_con     vir_tet
      cpu  (s)      volume    temp_shl     eng_shl     vir_shl       alpha        beta       gamma     vir_pmf       press

 ----------------------------------------------------------------------------------------------------------------------------------
           240 -1.1993E+06  6.7050E+02 -1.2019E+06  2.9140E+05 -1.4933E+06  0.0000E+00  4.0170E-03  0.0000E+00  0.0000E+00
       0.24000 -1.1813E+06  1.3115E+03 -4.9813E+04 -1.5420E+06  1.4924E+06  0.0000E+00 -3.8801E-02  0.0000E+00  0.0000E+00
         4.896  5.5682E+03  0.0000E+00  0.0000E+00  0.0000E+00  9.0000E+01  9.0000E+01  9.0000E+01  0.0000E+00  5.3579E+01

       rolling -1.1993E+06  6.6451E+02 -1.2018E+06  2.8944E+05 -1.4913E+06  0.0000E+00  3.7981E-03  0.0000E+00  0.0000E+00
      averages -1.1835E+06  1.6956E+03 -4.3220E+04 -1.5334E+06  1.4904E+06  0.0000E+00 -3.6747E-02  0.0000E+00  0.0000E+00
                5.5682E+03  0.0000E+00  0.0000E+00  0.0000E+00  9.0000E+01  9.0000E+01  9.0000E+01  0.0000E+00  4.7060E+01
 ----------------------------------------------------------------------------------------------------------------------------------
           250 -1.1993E+06  6.3153E+02 -1.2018E+06  2.9220E+05 -1.4940E+06  0.0000E+00  4.0730E-03  0.0000E+00  0.0000E+00
       0.25000 -1.1804E+06  8.2258E+02 -5.2777E+04 -1.5456E+06  1.4931E+06  0.0000E+00 -3.9439E-02  0.0000E+00  0.0000E+00
         5.099  5.5682E+03  0.0000E+00  0.0000E+00  0.0000E+00  9.0000E+01  9.0000E+01  9.0000E+01  0.0000E+00  5.6223E+01

       rolling -1.1993E+06  6.6374E+02 -1.2018E+06  2.8983E+05 -1.4917E+06  0.0000E+00  3.8279E-03  0.0000E+00  0.0000E+00
      averages -1.1830E+06  1.7563E+03 -4.4508E+04 -1.5351E+06  1.4908E+06  0.0000E+00 -3.7038E-02  0.0000E+00  0.0000E+00
                5.5682E+03  0.0000E+00  0.0000E+00  0.0000E+00  9.0000E+01  9.0000E+01  9.0000E+01  0.0000E+00  4.8317E+01
 ----------------------------------------------------------------------------------------------------------------------------------
           260 -1.1993E+06  6.0044E+02 -1.2017E+06  2.9261E+05 -1.4943E+06  0.0000E+00  4.5776E-03  0.0000E+00  0.0000E+00
       0.26000 -1.1801E+06  7.8795E+02 -5.3851E+04 -1.5470E+06  1.4934E+06  0.0000E+00 -4.4145E-02  0.0000E+00  0.0000E+00
         5.314  5.5682E+03  0.0000E+00  0.0000E+00  0.0000E+00  9.0000E+01  9.0000E+01  9.0000E+01  0.0000E+00  5.7058E+01

       rolling -1.1993E+06  6.5925E+02 -1.2018E+06  2.9016E+05 -1.4920E+06  0.0000E+00  3.8621E-03  0.0000E+00  0.0000E+00
      averages -1.1827E+06  1.7778E+03 -4.5629E+04 -1.5365E+06  1.4911E+06  0.0000E+00 -3.7366E-02  0.0000E+00  0.0000E+00
                5.5682E+03  0.0000E+00  0.0000E+00  0.0000E+00  9.0000E+01  9.0000E+01  9.0000E+01  0.0000E+00  4.9383E+01
 ----------------------------------------------------------------------------------------------------------------------------------
           270 -1.1993E+06  6.5678E+02 -1.2019E+06  2.9015E+05 -1.4921E+06  0.0000E+00  3.7706E-03  0.0000E+00  0.0000E+00
       0.27000 -1.1827E+06  9.2435E+02 -4.5851E+04 -1.5367E+06  1.4912E+06  0.0000E+00 -3.6477E-02  0.0000E+00  0.0000E+00
         5.528  5.5682E+03  0.0000E+00  0.0000E+00  0.0000E+00  9.0000E+01  9.0000E+01  9.0000E+01  0.0000E+00  4.9605E+01

       rolling -1.1993E+06  6.5650E+02 -1.2018E+06  2.9033E+05 -1.4922E+06  0.0000E+00  3.9168E-03  0.0000E+00  0.0000E+00
      averages -1.1825E+06  1.7813E+03 -4.6195E+04 -1.5373E+06  1.4913E+06  0.0000E+00 -3.7881E-02  0.0000E+00  0.0000E+00
                5.5682E+03  0.0000E+00  0.0000E+00  0.0000E+00  9.0000E+01  9.0000E+01  9.0000E+01  0.0000E+00  4.9920E+01
 ----------------------------------------------------------------------------------------------------------------------------------
           280 -1.1993E+06  6.6332E+02 -1.2020E+06  2.8845E+05 -1.4904E+06  0.0000E+00  3.5534E-03  0.0000E+00  0.0000E+00
       0.28000 -1.1846E+06  8.7377E+02 -4.0112E+04 -1.5294E+06  1.4895E+06  0.0000E+00 -3.4446E-02  0.0000E+00  0.0000E+00
         5.751  5.5682E+03  0.0000E+00  0.0000E+00  0.0000E+00  9.0000E+01  9.0000E+01  9.0000E+01  0.0000E+00  4.4022E+01

       rolling -1.1993E+06  6.5566E+02 -1.2019E+06  2.9018E+05 -1.4920E+06  0.0000E+00  3.8380E-03  0.0000E+00  0.0000E+00
      averages -1.1827E+06  1.7422E+03 -4.5687E+04 -1.5366E+06  1.4912E+06  0.0000E+00 -3.7124E-02  0.0000E+00  0.0000E+00
                5.5682E+03  0.0000E+00  0.0000E+00  0.0000E+00  9.0000E+01  9.0000E+01  9.0000E+01  0.0000E+00  4.9417E+01
 ----------------------------------------------------------------------------------------------------------------------------------
           290 -1.1993E+06  6.4620E+02 -1.2019E+06  2.8807E+05 -1.4900E+06  0.0000E+00  3.8063E-03  0.0000E+00  0.0000E+00
       0.29000 -1.1852E+06  8.6438E+02 -3.8584E+04 -1.5274E+06  1.4891E+06  0.0000E+00 -3.6767E-02  0.0000E+00  0.0000E+00
         5.985  5.5682E+03  0.0000E+00  0.0000E+00  0.0000E+00  9.0000E+01  9.0000E+01  9.0000E+01  0.0000E+00  4.2402E+01

       rolling -1.1993E+06  6.5441E+02 -1.2019E+06  2.8995E+05 -1.4918E+06  0.0000E+00  3.8164E-03  0.0000E+00  0.0000E+00
      averages -1.1830E+06  1.6280E+03 -4.4897E+04 -1.5356E+06  1.4909E+06  0.0000E+00 -3.6912E-02  0.0000E+00  0.0000E+00
                5.5682E+03  0.0000E+00  0.0000E+00  0.0000E+00  9.0000E+01  9.0000E+01  9.0000E+01  0.0000E+00  4.8636E+01
 ----------------------------------------------------------------------------------------------------------------------------------
           300 -1.1993E+06  6.3267E+02 -1.2019E+06  2.8795E+05 -1.4898E+06  0.0000E+00  3.3111E-03  0.0000E+00  0.0000E+00
       0.30000 -1.1854E+06  1.1497E+03 -3.8064E+04 -1.5268E+06  1.4890E+06  0.0000E+00 -3.2055E-02  0.0000E+00  0.0000E+00
         6.189  5.5682E+03  0.0000E+00  0.0000E+00  0.0000E+00  9.0000E+01  9.0000E+01  9.0000E+01  0.0000E+00  4.1789E+01

       rolling -1.1993E+06  6.5380E+02 -1.2019E+06  2.8981E+05 -1.4917E+06  0.0000E+00  3.8362E-03  0.0000E+00  0.0000E+00
      averages -1.1832E+06  1.4582E+03 -4.4388E+04 -1.5350E+06  1.4908E+06  0.0000E+00 -3.7094E-02  0.0000E+00  0.0000E+00
                5.5682E+03  0.0000E+00  0.0000E+00  0.0000E+00  9.0000E+01  9.0000E+01  9.0000E+01  0.0000E+00  4.8136E+01
 ----------------------------------------------------------------------------------------------------------------------------------
           310 -1.1993E+06  6.4291E+02 -1.2019E+06  2.8971E+05 -1.4916E+06  0.0000E+00  3.5226E-03  0.0000E+00  0.0000E+00
       0.31000 -1.1834E+06  1.6662E+03 -4.3965E+04 -1.5345E+06  1.4908E+06  0.0000E+00 -3.4171E-02  0.0000E+00  0.0000E+00
         6.412  5.5682E+03  0.0000E+00  0.0000E+00  0.0000E+00  9.0000E+01  9.0000E+01  9.0000E+01  0.0000E+00  4.7638E+01

       rolling -1.1993E+06  6.4729E+02 -1.2019E+06  2.8978E+05 -1.4917E+06  0.0000E+00  3.7730E-03  0.0000E+00  0.0000E+00
      averages -1.1832E+06  1.3180E+03 -4.4327E+04 -1.5349E+06  1.4908E+06  0.0000E+00 -3.6494E-02  0.0000E+00  0.0000E+00
                5.5682E+03  0.0000E+00  0.0000E+00  0.0000E+00  9.0000E+01  9.0000E+01  9.0000E+01  0.0000E+00  4.8033E+01
 ----------------------------------------------------------------------------------------------------------------------------------
 ----------------------------------------------------------------------------------------------------------------------------------

          step     eng_tot    temp_tot     eng_cfg     eng_src     eng_cou     eng_bnd     eng_ang     eng_dih     eng_tet
      time(ps)      eng_pv    temp_rot     vir_cfg     vir_src     vir_cou     vir_bnd     vir_ang     vir_con     vir_tet
      cpu  (s)      volume    temp_shl     eng_shl     vir_shl       alpha        beta       gamma     vir_pmf       press

 ----------------------------------------------------------------------------------------------------------------------------------
           320 -1.1993E+06  6.3444E+02 -1.2019E+06  2.9223E+05 -1.4941E+06  0.0000E+00  4.4660E-03  0.0000E+00  0.0000E+00
       0.32000 -1.1807E+06  2.0798E+03 -5.2231E+04 -1.5454E+06  1.4933E+06  0.0000E+00 -4.3040E-02  0.0000E+00  0.0000E+00
         6.623  5.5682E+03  0.0000E+00  0.0000E+00  0.0000E+00  9.0000E+01  9.0000E+01  9.0000E+01  0.0000E+00  5.5678E+01

       rolling -1.1993E+06  6.4410E+02 -1.2019E+06  2.9011E+05 -1.4920E+06  0.0000E+00  3.8445E-03  0.0000E+00  0.0000E+00
      averages -1.1829E+06  1.2506E+03 -4.5408E+04 -1.5363E+06  1.4911E+06  0.0000E+00 -3.7184E-02  0.0000E+00  0.0000E+00
                5.5682E+03  0.0000E+00  0.0000E+00  0.0000E+00  9.0000E+01  9.0000E+01  9.0000E+01  0.0000E+00  4.9073E+01
 ----------------------------------------------------------------------------------------------------------------------------------
           330 -1.1993E+06  6.1235E+02 -1.2019E+06  2.9301E+05 -1.4949E+06  0.0000E+00  3.9903E-03  0.0000E+00  0.0000E+00
       0.33000 -1.1799E+06  2.3785E+03 -5.4855E+04 -1.5488E+06  1.4940E+06  0.0000E+00 -3.8612E-02  0.0000E+00  0.0000E+00
         6.863  5.5682E+03  0.0000E+00  0.0000E+00  0.0000E+00  9.0000E+01  9.0000E+01  9.0000E+01  0.0000E+00  5.8089E+01

       rolling -1.1993E+06  6.4101E+02 -1.2019E+06  2.9048E+05 -1.4924E+06  0.0000E+00  3.9180E-03  0.0000E+00  0.0000E+00
      averages -1.1825E+06  1.2597E+03 -4.6660E+04 -1.5379E+06  1.4915E+06  0.0000E+00 -3.7882E-02  0.0000E+00  0.0000E+00
                5.5682E+03  0.0000E+00  0.0000E+00  0.0000E+00  9.0000E+01  9.0000E+01  9.0000E+01  0.0000E+00  5.0279E+01
 ----------------------------------------------------------------------------------------------------------------------------------
           340 -1.1993E+06  6.5383E+02 -1.2020E+06  2.9249E+05 -1.4945E+06  0.0000E+00  4.2133E-03  0.0000E+00  0.0000E+00
       0.34000 -1.1804E+06  2.6225E+03 -5.3136E+04 -1.5467E+06  1.4936E+06  0.0000E+00 -4.0755E-02  0.0000E+00  0.0000E+00
         7.064  5.5682E+03  0.0000E+00  0.0000E+00  0.0000E+00  9.0000E+01  9.0000E+01  9.0000E+01  0.0000E+00  5.6690E+01

       rolling -1.1993E+06  6.4057E+02 -1.2019E+06  2.9064E+05 -1.4925E+06  0.0000E+00  3.9093E-03  0.0000E+00  0.0000E+00
      averages -1.1823E+06  1.3508E+03 -4.7195E+04 -1.5386E+06  1.4917E+06  0.0000E+00 -3.7807E-02  0.0000E+00  0.0000E+00
                5.5682E+03  0.0000E+00  0.0000E+00  0.0000E+00  9.0000E+01  9.0000E+01  9.0000E+01  0.0000E+00  5.0799E+01
 ----------------------------------------------------------------------------------------------------------------------------------
           350 -1.1993E+06  6.4340E+02 -1.2020E+06  2.9080E+05 -1.4928E+06  0.0000E+00  3.9921E-03  0.0000E+00  0.0000E+00
       0.35000 -1.1824E+06  2.6634E+03 -4.7339E+04 -1.5392E+06  1.4919E+06  0.0000E+00 -3.8597E-02  0.0000E+00  0.0000E+00
         7.278  5.5682E+03  0.0000E+00  0.0000E+00  0.0000E+00  9.0000E+01  9.0000E+01  9.0000E+01  0.0000E+00  5.0928E+01

       rolling -1.1993E+06  6.3740E+02 -1.2019E+06  2.9065E+05 -1.4925E+06  0.0000E+00  3.9380E-03  0.0000E+00  0.0000E+00
      averages -1.1824E+06  1.5172E+03 -4.7159E+04 -1.5386E+06  1.4917E+06  0.0000E+00 -3.8080E-02  0.0000E+00  0.0000E+00
                5.5682E+03  0.0000E+00  0.0000E+00  0.0000E+00  9.0000E+01  9.0000E+01  9.0000E+01  0.0000E+00  5.0737E+01
 ----------------------------------------------------------------------------------------------------------------------------------
           360 -1.1993E+06  6.1632E+02 -1.2019E+06  2.8823E+05 -1.4902E+06  0.0000E+00  3.4824E-03  0.0000E+00  0.0000E+00
       0.36000 -1.1852E+06  2.3340E+03 -3.9181E+04 -1.5283E+06  1.4893E+06  0.0000E+00 -3.3718E-02  0.0000E+00  0.0000E+00
         7.494  5.5682E+03  0.0000E+00  0.0000E+00  0.0000E+00  9.0000E+01  9.0000E+01  9.0000E+01  0.0000E+00  4.2741E+01

       rolling -1.1993E+06  6.3635E+02 -1.2019E+06  2.9032E+05 -1.4922E+06  0.0000E+00  3.8551E-03  0.0000E+00  0.0000E+00
      averages -1.1828E+06  1.6917E+03 -4.6039E+04 -1.5372E+06  1.4914E+06  0.0000E+00 -3.7286E-02  0.0000E+00  0.0000E+00
                5.5682E+03  0.0000E+00  0.0000E+00  0.0000E+00  9.0000E+01  9.0000E+01  9.0000E+01  0.0000E+00  4.9626E+01
 ----------------------------------------------------------------------------------------------------------------------------------
           370 -1.1993E+06  6.0776E+02 -1.2019E+06  2.8879E+05 -1.4907E+06  0.0000E+00  3.9752E-03  0.0000E+00  0.0000E+00
       0.37000 -1.1848E+06  1.6963E+03 -4.0561E+04 -1.5302E+06  1.4898E+06  0.0000E+00 -3.8358E-02  0.0000E+00  0.0000E+00
         7.720  5.5682E+03  0.0000E+00  0.0000E+00  0.0000E+00  9.0000E+01  9.0000E+01  9.0000E+01  0.0000E+00  4.4050E+01

       rolling -1.1993E+06  6.3469E+02 -1.2019E+06  2.9003E+05 -1.4919E+06  0.0000E+00  3.8128E-03  0.0000E+00  0.0000E+00
      averages -1.1831E+06  1.8040E+03 -4.5004E+04 -1.5359E+06  1.4911E+06  0.0000E+00 -3.6881E-02  0.0000E+00  0.0000E+00
                5.5682E+03  0.0000E+00  0.0000E+00  0.0000E+00  9.0000E+01  9.0000E+01  9.0000E+01  0.0000E+00  4.8596E+01
 ----------------------------------------------------------------------------------------------------------------------------------
           380 -1.1993E+06  6.4761E+02 -1.2021E+06  2.8861E+05 -1.4907E+06  0.0000E+00  3.4938E-03  0.0000E+00  0.0000E+00
       0.38000 -1.1848E+06  1.1640E+03 -4.0167E+04 -1.5298E+06  1.4898E+06  0.0000E+00 -3.3846E-02  0.0000E+00  0.0000E+00
         7.961  5.5682E+03  0.0000E+00  0.0000E+00  0.0000E+00  9.0000E+01  9.0000E+01  9.0000E+01  0.0000E+00  4.3958E+01

       rolling -1.1993E+06  6.3433E+02 -1.2019E+06  2.8999E+05 -1.4919E+06  0.0000E+00  3.8370E-03  0.0000E+00  0.0000E+00
      averages -1.1832E+06  1.8515E+03 -4.4803E+04 -1.5357E+06  1.4911E+06  0.0000E+00 -3.7104E-02  0.0000E+00  0.0000E+00
                5.5682E+03  0.0000E+00  0.0000E+00  0.0000E+00  9.0000E+01  9.0000E+01  9.0000E+01  0.0000E+00  4.8395E+01
 ----------------------------------------------------------------------------------------------------------------------------------
           390 -1.1993E+06  5.7800E+02 -1.2018E+06  2.8984E+05 -1.4917E+06  0.0000E+00  3.6945E-03  0.0000E+00  0.0000E+00
       0.39000 -1.1836E+06  7.9968E+02 -4.4335E+04 -1.5350E+06  1.4908E+06  0.0000E+00 -3.5770E-02  0.0000E+00  0.0000E+00
         8.147  5.5682E+03  0.0000E+00  0.0000E+00  0.0000E+00  9.0000E+01  9.0000E+01  9.0000E+01  0.0000E+00  4.7564E+01

       rolling -1.1993E+06  6.3250E+02 -1.2020E+06  2.9004E+05 -1.4920E+06  0.0000E+00  3.8077E-03  0.0000E+00  0.0000E+00
      averages -1.1832E+06  1.8618E+03 -4.4992E+04 -1.5360E+06  1.4911E+06  0.0000E+00 -3.6829E-02  0.0000E+00  0.0000E+00
                5.5682E+03  0.0000E+00  0.0000E+00  0.0000E+00  9.0000E+01  9.0000E+01  9.0000E+01  0.0000E+00  4.8567E+01
 ----------------------------------------------------------------------------------------------------------------------------------
 ----------------------------------------------------------------------------------------------------------------------------------

          step     eng_tot    temp_tot     eng_cfg     eng_src     eng_cou     eng_bnd     eng_ang     eng_dih     eng_tet
      time(ps)      eng_pv    temp_rot     vir_cfg     vir_src     vir_cou     vir_bnd     vir_ang     vir_con     vir_tet
      cpu  (s)      volume    temp_shl     eng_shl     vir_shl       alpha        beta       gamma     vir_pmf       press

 ----------------------------------------------------------------------------------------------------------------------------------
           400 -1.1993E+06  6.2709E+02 -1.2020E+06  2.9166E+05 -1.4937E+06  0.0000E+00  4.3087E-03  0.0000E+00  0.0000E+00
       0.40000 -1.1815E+06  5.2521E+02 -5.0294E+04 -1.5429E+06  1.4928E+06  0.0000E+00 -4.1580E-02  0.0000E+00  0.0000E+00
         8.376  5.5682E+03  0.0000E+00  0.0000E+00  0.0000E+00  9.0000E+01  9.0000E+01  9.0000E+01  0.0000E+00  5.3764E+01

       rolling -1.1993E+06  6.2797E+02 -1.2020E+06  2.9036E+05 -1.4923E+06  0.0000E+00  3.8656E-03  0.0000E+00  0.0000E+00
      averages -1.1829E+06  1.8269E+03 -4.6017E+04 -1.5373E+06  1.4914E+06  0.0000E+00 -3.7386E-02  0.0000E+00  0.0000E+00
                5.5682E+03  0.0000E+00  0.0000E+00  0.0000E+00  9.0000E+01  9.0000E+01  9.0000E+01  0.0000E+00  4.9542E+01
 ----------------------------------------------------------------------------------------------------------------------------------
           410 -1.1993E+06  6.1264E+02 -1.2020E+06  2.9154E+05 -1.4936E+06  0.0000E+00  3.7596E-03  0.0000E+00  0.0000E+00
       0.41000 -1.1815E+06  3.0794E+02 -5.0442E+04 -1.5428E+06  1.4927E+06  0.0000E+00 -3.6454E-02  0.0000E+00  0.0000E+00
         8.587  5.5682E+03  0.0000E+00  0.0000E+00  0.0000E+00  9.0000E+01  9.0000E+01  9.0000E+01  0.0000E+00  5.3812E+01

       rolling -1.1993E+06  6.2569E+02 -1.2020E+06  2.9066E+05 -1.4926E+06  0.0000E+00  3.9367E-03  0.0000E+00  0.0000E+00
      averages -1.1825E+06  1.7238E+03 -4.7039E+04 -1.5387E+06  1.4918E+06  0.0000E+00 -3.8065E-02  0.0000E+00  0.0000E+00
                5.5682E+03  0.0000E+00  0.0000E+00  0.0000E+00  9.0000E+01  9.0000E+01  9.0000E+01  0.0000E+00  5.0531E+01
 ----------------------------------------------------------------------------------------------------------------------------------
           420 -1.1993E+06  6.0124E+02 -1.2020E+06  2.9171E+05 -1.4937E+06  0.0000E+00  3.9472E-03  0.0000E+00  0.0000E+00
       0.42000 -1.1814E+06  2.2751E+02 -5.1085E+04 -1.5435E+06  1.4928E+06  0.0000E+00 -3.8200E-02  0.0000E+00  0.0000E+00
         8.798  5.5682E+03  0.0000E+00  0.0000E+00  0.0000E+00  9.0000E+01  9.0000E+01  9.0000E+01  0.0000E+00  5.4364E+01

       rolling -1.1993E+06  6.2099E+02 -1.2020E+06  2.9071E+05 -1.4927E+06  0.0000E+00  3.9043E-03  0.0000E+00  0.0000E+00
      averages -1.1825E+06  1.5577E+03 -4.7252E+04 -1.5389E+06  1.4918E+06  0.0000E+00 -3.7763E-02  0.0000E+00  0.0000E+00
                5.5682E+03  0.0000E+00  0.0000E+00  0.0000E+00  9.0000E+01  9.0000E+01  9.0000E+01  0.0000E+00  5.0711E+01
 ----------------------------------------------------------------------------------------------------------------------------------
           430 -1.1993E+06  6.3084E+02 -1.2021E+06  2.9123E+05 -1.4934E+06  0.0000E+00  3.7459E-03  0.0000E+00  0.0000E+00
       0.43000 -1.1819E+06  3.7392E+02 -4.9263E+04 -1.5413E+06  1.4925E+06  0.0000E+00 -3.6201E-02  0.0000E+00  0.0000E+00
         9.043  5.5682E+03  0.0000E+00  0.0000E+00  0.0000E+00  9.0000E+01  9.0000E+01  9.0000E+01  0.0000E+00  5.2783E+01

       rolling -1.1993E+06  6.1657E+02 -1.2020E+06  2.9060E+05 -1.4926E+06  0.0000E+00  3.8791E-03  0.0000E+00  0.0000E+00
      averages -1.1826E+06  1.3622E+03 -4.6921E+04 -1.5384E+06  1.4917E+06  0.0000E+00 -3.7523E-02  0.0000E+00  0.0000E+00
                5.5682E+03  0.0000E+00  0.0000E+00  0.0000E+00  9.0000E+01  9.0000E+01  9.0000E+01  0.0000E+00  5.0360E+01
 ----------------------------------------------------------------------------------------------------------------------------------
           440 -1.1993E+06  5.8533E+02 -1.2020E+06  2.8977E+05 -1.4917E+06  0.0000E+00  3.2497E-03  0.0000E+00  0.0000E+00
       0.44000 -1.1837E+06  4.6414E+02 -4.4343E+04 -1.5349E+06  1.4909E+06  0.0000E+00 -3.1481E-02  0.0000E+00  0.0000E+00
         9.245  5.5682E+03  0.0000E+00  0.0000E+00  0.0000E+00  9.0000E+01  9.0000E+01  9.0000E+01  0.0000E+00  4.7632E+01

       rolling -1.1993E+06  6.1654E+02 -1.2020E+06  2.9035E+05 -1.4923E+06  0.0000E+00  3.8112E-03  0.0000E+00  0.0000E+00
      averages -1.1829E+06  1.1545E+03 -4.6135E+04 -1.5374E+06  1.4915E+06  0.0000E+00 -3.6865E-02  0.0000E+00  0.0000E+00
                5.5682E+03  0.0000E+00  0.0000E+00  0.0000E+00  9.0000E+01  9.0000E+01  9.0000E+01  0.0000E+00  4.9594E+01
 ----------------------------------------------------------------------------------------------------------------------------------
           450 -1.1993E+06  5.9702E+02 -1.2020E+06  2.8944E+05 -1.4915E+06  0.0000E+00  3.8128E-03  0.0000E+00  0.0000E+00
       0.45000 -1.1841E+06  4.6188E+02 -4.3237E+04 -1.5335E+06  1.4906E+06  0.0000E+00 -3.6857E-02  0.0000E+00  0.0000E+00
         9.469  5.5682E+03  0.0000E+00  0.0000E+00  0.0000E+00  9.0000E+01  9.0000E+01  9.0000E+01  0.0000E+00  4.6629E+01

       rolling -1.1993E+06  6.1434E+02 -1.2020E+06  2.9011E+05 -1.4921E+06  0.0000E+00  3.7398E-03  0.0000E+00  0.0000E+00
      averages -1.1832E+06  9.3305E+02 -4.5366E+04 -1.5363E+06  1.4912E+06  0.0000E+00 -3.6180E-02  0.0000E+00  0.0000E+00
                5.5682E+03  0.0000E+00  0.0000E+00  0.0000E+00  9.0000E+01  9.0000E+01  9.0000E+01  0.0000E+00  4.8829E+01
 ----------------------------------------------------------------------------------------------------------------------------------
           460 -1.1993E+06  5.9003E+02 -1.2020E+06  2.8926E+05 -1.4913E+06  0.0000E+00  3.7668E-03  0.0000E+00  0.0000E+00
       0.46000 -1.1843E+06  6.2173E+02 -4.2694E+04 -1.5328E+06  1.4904E+06  0.0000E+00 -3.6325E-02  0.0000E+00  0.0000E+00
         9.675  5.5682E+03  0.0000E+00  0.0000E+00  0.0000E+00  9.0000E+01  9.0000E+01  9.0000E+01  0.0000E+00  4.6044E+01

       rolling -1.1993E+06  6.0992E+02 -1.2020E+06  2.9013E+05 -1.4921E+06  0.0000E+00  3.7701E-03  0.0000E+00  0.0000E+00
      averages -1.1832E+06  7.3446E+02 -4.5455E+04 -1.5364E+06  1.4913E+06  0.0000E+00 -3.6462E-02  0.0000E+00  0.0000E+00
                5.5682E+03  0.0000E+00  0.0000E+00  0.0000E+00  9.0000E+01  9.0000E+01  9.0000E+01  0.0000E+00  4.8890E+01
 ----------------------------------------------------------------------------------------------------------------------------------
           470 -1.1993E+06  5.8239E+02 -1.2020E+06  2.8924E+05 -1.4913E+06  0.0000E+00  3.2481E-03  0.0000E+00  0.0000E+00
       0.47000 -1.1843E+06  1.0917E+03 -4.2738E+04 -1.5328E+06  1.4904E+06  0.0000E+00 -3.1492E-02  0.0000E+00  0.0000E+00
         9.899  5.5682E+03  0.0000E+00  0.0000E+00  0.0000E+00  9.0000E+01  9.0000E+01  9.0000E+01  0.0000E+00  4.6021E+01

       rolling -1.1993E+06  6.0558E+02 -1.2020E+06  2.9021E+05 -1.4922E+06  0.0000E+00  3.7366E-03  0.0000E+00  0.0000E+00
      averages -1.1831E+06  6.2027E+02 -4.5768E+04 -1.5368E+06  1.4914E+06  0.0000E+00 -3.6140E-02  0.0000E+00  0.0000E+00
                5.5682E+03  0.0000E+00  0.0000E+00  0.0000E+00  9.0000E+01  9.0000E+01  9.0000E+01  0.0000E+00  4.9169E+01
 ----------------------------------------------------------------------------------------------------------------------------------
 ----------------------------------------------------------------------------------------------------------------------------------

          step     eng_tot    temp_tot     eng_cfg     eng_src     eng_cou     eng_bnd     eng_ang     eng_dih     eng_tet
      time(ps)      eng_pv    temp_rot     vir_cfg     vir_src     vir_cou     vir_bnd     vir_ang     vir_con     vir_tet
      cpu  (s)      volume    temp_shl     eng_shl     vir_shl       alpha        beta       gamma     vir_pmf       press

 ----------------------------------------------------------------------------------------------------------------------------------
           480 -1.1993E+06  5.7536E+02 -1.2020E+06  2.9077E+05 -1.4928E+06  0.0000E+00  4.0242E-03  0.0000E+00  0.0000E+00
       0.48000 -1.1828E+06  1.7033E+03 -4.7478E+04 -1.5392E+06  1.4919E+06  0.0000E+00 -3.8880E-02  0.0000E+00  0.0000E+00
        10.128  5.5682E+03  0.0000E+00  0.0000E+00  0.0000E+00  9.0000E+01  9.0000E+01  9.0000E+01  0.0000E+00  5.0606E+01

       rolling -1.1993E+06  6.0226E+02 -1.2020E+06  2.9033E+05 -1.4924E+06  0.0000E+00  3.7179E-03  0.0000E+00  0.0000E+00
      averages -1.1830E+06  6.2603E+02 -4.6204E+04 -1.5374E+06  1.4915E+06  0.0000E+00 -3.5967E-02  0.0000E+00  0.0000E+00
                5.5682E+03  0.0000E+00  0.0000E+00  0.0000E+00  9.0000E+01  9.0000E+01  9.0000E+01  0.0000E+00  4.9573E+01
 ----------------------------------------------------------------------------------------------------------------------------------
           490 -1.1993E+06  6.1047E+02 -1.2022E+06  2.9146E+05 -1.4937E+06  0.0000E+00  3.7436E-03  0.0000E+00  0.0000E+00
       0.49000 -1.1819E+06  2.0209E+03 -4.9773E+04 -1.5425E+06  1.4928E+06  0.0000E+00 -3.6201E-02  0.0000E+00  0.0000E+00
        10.330  5.5682E+03  0.0000E+00  0.0000E+00  0.0000E+00  9.0000E+01  9.0000E+01  9.0000E+01  0.0000E+00  5.3098E+01

       rolling -1.1993E+06  5.9861E+02 -1.2020E+06  2.9056E+05 -1.4926E+06  0.0000E+00  3.7738E-03  0.0000E+00  0.0000E+00
      averages -1.1828E+06  7.2082E+02 -4.6968E+04 -1.5384E+06  1.4917E+06  0.0000E+00 -3.6495E-02  0.0000E+00  0.0000E+00
                5.5682E+03  0.0000E+00  0.0000E+00  0.0000E+00  9.0000E+01  9.0000E+01  9.0000E+01  0.0000E+00  5.0295E+01
 ----------------------------------------------------------------------------------------------------------------------------------
           500 -1.1993E+06  5.6064E+02 -1.2020E+06  2.9181E+05 -1.4938E+06  0.0000E+00  3.6759E-03  0.0000E+00  0.0000E+00
       0.50000 -1.1817E+06  2.0830E+03 -5.0908E+04 -1.5438E+06  1.4930E+06  0.0000E+00 -3.5578E-02  0.0000E+00  0.0000E+00
        10.573  5.5682E+03  0.0000E+00  0.0000E+00  0.0000E+00  9.0000E+01  9.0000E+01  9.0000E+01  0.0000E+00  5.3858E+01

       rolling -1.1993E+06  5.9485E+02 -1.2020E+06  2.9064E+05 -1.4927E+06  0.0000E+00  3.7194E-03  0.0000E+00  0.0000E+00
      averages -1.1827E+06  8.6414E+02 -4.7229E+04 -1.5387E+06  1.4918E+06  0.0000E+00 -3.5976E-02  0.0000E+00  0.0000E+00
                5.5682E+03  0.0000E+00  0.0000E+00  0.0000E+00  9.0000E+01  9.0000E+01  9.0000E+01  0.0000E+00  5.0521E+01
 ----------------------------------------------------------------------------------------------------------------------------------
           510 -1.1993E+06  5.4734E+02 -1.2020E+06  2.9174E+05 -1.4937E+06  0.0000E+00  4.2829E-03  0.0000E+00  0.0000E+00
       0.51000 -1.1818E+06  1.7995E+03 -5.0842E+04 -1.5435E+06  1.4929E+06  0.0000E+00 -4.1375E-02  0.0000E+00  0.0000E+00
        10.790  5.5682E+03  0.0000E+00  0.0000E+00  0.0000E+00  9.0000E+01  9.0000E+01  9.0000E+01  0.0000E+00  5.3706E+01

       rolling -1.1993E+06  5.9199E+02 -1.2021E+06  2.9063E+05 -1.4927E+06  0.0000E+00  3.7216E-03  0.0000E+00  0.0000E+00
      averages -1.1828E+06  1.0203E+03 -4.7212E+04 -1.5387E+06  1.4918E+06  0.0000E+00 -3.5997E-02  0.0000E+00  0.0000E+00
                5.5682E+03  0.0000E+00  0.0000E+00  0.0000E+00  9.0000E+01  9.0000E+01  9.0000E+01  0.0000E+00  5.0480E+01
 ----------------------------------------------------------------------------------------------------------------------------------
           520 -1.1993E+06  5.8033E+02 -1.2022E+06  2.9053E+05 -1.4927E+06  0.0000E+00  3.5187E-03  0.0000E+00  0.0000E+00
       0.52000 -1.1830E+06  1.2130E+03 -4.6893E+04 -1.5384E+06  1.4918E+06  0.0000E+00 -3.4072E-02  0.0000E+00  0.0000E+00
        10.979  5.5682E+03  0.0000E+00  0.0000E+00  0.0000E+00  9.0000E+01  9.0000E+01  9.0000E+01  0.0000E+00  5.0080E+01

       rolling -1.1993E+06  5.8991E+02 -1.2021E+06  2.9057E+05 -1.4926E+06  0.0000E+00  3.7351E-03  0.0000E+00  0.0000E+00
      averages -1.1829E+06  1.1441E+03 -4.6999E+04 -1.5385E+06  1.4918E+06  0.0000E+00 -3.6118E-02  0.0000E+00  0.0000E+00
                5.5682E+03  0.0000E+00  0.0000E+00  0.0000E+00  9.0000E+01  9.0000E+01  9.0000E+01  0.0000E+00  5.0254E+01
 ----------------------------------------------------------------------------------------------------------------------------------
           530 -1.1993E+06  5.9118E+02 -1.2022E+06  2.9005E+05 -1.4923E+06  0.0000E+00  3.4608E-03  0.0000E+00  0.0000E+00
       0.53000 -1.1837E+06  7.6271E+02 -4.5014E+04 -1.5362E+06  1.4914E+06  0.0000E+00 -3.3486E-02  0.0000E+00  0.0000E+00
        11.209  5.5682E+03  0.0000E+00  0.0000E+00  0.0000E+00  9.0000E+01  9.0000E+01  9.0000E+01  0.0000E+00  4.8324E+01

       rolling -1.1993E+06  5.8672E+02 -1.2021E+06  2.9044E+05 -1.4925E+06  0.0000E+00  3.6765E-03  0.0000E+00  0.0000E+00
      averages -1.1831E+06  1.2092E+03 -4.6516E+04 -1.5379E+06  1.4917E+06  0.0000E+00 -3.5558E-02  0.0000E+00  0.0000E+00
                5.5682E+03  0.0000E+00  0.0000E+00  0.0000E+00  9.0000E+01  9.0000E+01  9.0000E+01  0.0000E+00  4.9755E+01
 ----------------------------------------------------------------------------------------------------------------------------------
           540 -1.1993E+06  5.7811E+02 -1.2022E+06  2.9000E+05 -1.4922E+06  0.0000E+00  3.5869E-03  0.0000E+00  0.0000E+00
       0.54000 -1.1838E+06  5.2172E+02 -4.4681E+04 -1.5358E+06  1.4913E+06  0.0000E+00 -3.4669E-02  0.0000E+00  0.0000E+00
        11.422  5.5682E+03  0.0000E+00  0.0000E+00  0.0000E+00  9.0000E+01  9.0000E+01  9.0000E+01  0.0000E+00  4.7911E+01

       rolling -1.1993E+06  5.8127E+02 -1.2021E+06  2.9041E+05 -1.4925E+06  0.0000E+00  3.7011E-03  0.0000E+00  0.0000E+00
      averages -1.1831E+06  1.2265E+03 -4.6380E+04 -1.5378E+06  1.4916E+06  0.0000E+00 -3.5794E-02  0.0000E+00  0.0000E+00
                5.5682E+03  0.0000E+00  0.0000E+00  0.0000E+00  9.0000E+01  9.0000E+01  9.0000E+01  0.0000E+00  4.9582E+01
 ----------------------------------------------------------------------------------------------------------------------------------
           550 -1.1993E+06  5.5131E+02 -1.2021E+06  2.8993E+05 -1.4920E+06  0.0000E+00  3.3703E-03  0.0000E+00  0.0000E+00
       0.55000 -1.1839E+06  3.9584E+02 -4.4695E+04 -1.5357E+06  1.4912E+06  0.0000E+00 -3.2642E-02  0.0000E+00  0.0000E+00
        11.636  5.5682E+03  0.0000E+00  0.0000E+00  0.0000E+00  9.0000E+01  9.0000E+01  9.0000E+01  0.0000E+00  4.7738E+01

       rolling -1.1993E+06  5.7871E+02 -1.2021E+06  2.9045E+05 -1.4926E+06  0.0000E+00  3.6903E-03  0.0000E+00  0.0000E+00
      averages -1.1831E+06  1.2257E+03 -4.6487E+04 -1.5380E+06  1.4917E+06  0.0000E+00 -3.5686E-02  0.0000E+00  0.0000E+00
                5.5682E+03  0.0000E+00  0.0000E+00  0.0000E+00  9.0000E+01  9.0000E+01  9.0000E+01  0.0000E+00  4.9670E+01
 ----------------------------------------------------------------------------------------------------------------------------------
 ----------------------------------------------------------------------------------------------------------------------------------

          step     eng_tot    temp_tot     eng_cfg     eng_src     eng_cou     eng_bnd     eng_ang     eng_dih     eng_tet
      time(ps)      eng_pv    temp_rot     vir_cfg     vir_src     vir_cou     vir_bnd     vir_ang     vir_con     vir_tet
      cpu  (s)      volume    temp_shl     eng_shl     vir_shl       alpha        beta       gamma     vir_pmf       press

 ----------------------------------------------------------------------------------------------------------------------------------
           560 -1.1993E+06  5.4679E+02 -1.2021E+06  2.9107E+05 -1.4932E+06  0.0000E+00  4.0333E-03  0.0000E+00  0.0000E+00
       0.56000 -1.1827E+06  3.1519E+02 -4.8445E+04 -1.5406E+06  1.4923E+06  0.0000E+00 -3.9013E-02  0.0000E+00  0.0000E+00
        11.862  5.5682E+03  0.0000E+00  0.0000E+00  0.0000E+00  9.0000E+01  9.0000E+01  9.0000E+01  0.0000E+00  5.1387E+01

       rolling -1.1993E+06  5.7501E+02 -1.2021E+06  2.9057E+05 -1.4927E+06  0.0000E+00  3.6712E-03  0.0000E+00  0.0000E+00
      averages -1.1831E+06  1.2074E+03 -4.6846E+04 -1.5385E+06  1.4918E+06  0.0000E+00 -3.5514E-02  0.0000E+00  0.0000E+00
                5.5682E+03  0.0000E+00  0.0000E+00  0.0000E+00  9.0000E+01  9.0000E+01  9.0000E+01  0.0000E+00  4.9996E+01
 ----------------------------------------------------------------------------------------------------------------------------------
           570 -1.1993E+06  5.6187E+02 -1.2022E+06  2.9161E+05 -1.4938E+06  0.0000E+00  3.7828E-03  0.0000E+00  0.0000E+00
       0.57000 -1.1821E+06  2.6986E+02 -5.0189E+04 -1.5430E+06  1.4929E+06  0.0000E+00 -3.6503E-02  0.0000E+00  0.0000E+00
        12.081  5.5682E+03  0.0000E+00  0.0000E+00  0.0000E+00  9.0000E+01  9.0000E+01  9.0000E+01  0.0000E+00  5.3205E+01

       rolling -1.1993E+06  5.7269E+02 -1.2021E+06  2.9079E+05 -1.4929E+06  0.0000E+00  3.7316E-03  0.0000E+00  0.0000E+00
      averages -1.1828E+06  1.1511E+03 -4.7575E+04 -1.5394E+06  1.4921E+06  0.0000E+00 -3.6091E-02  0.0000E+00  0.0000E+00
                5.5682E+03  0.0000E+00  0.0000E+00  0.0000E+00  9.0000E+01  9.0000E+01  9.0000E+01  0.0000E+00  5.0696E+01
 ----------------------------------------------------------------------------------------------------------------------------------
           580 -1.1993E+06  5.2381E+02 -1.2021E+06  2.9099E+05 -1.4931E+06  0.0000E+00  3.3581E-03  0.0000E+00  0.0000E+00
       0.58000 -1.1829E+06  2.7350E+02 -4.8281E+04 -1.5402E+06  1.4922E+06  0.0000E+00 -3.2558E-02  0.0000E+00  0.0000E+00
        12.291  5.5682E+03  0.0000E+00  0.0000E+00  0.0000E+00  9.0000E+01  9.0000E+01  9.0000E+01  0.0000E+00  5.1065E+01

       rolling -1.1993E+06  5.6802E+02 -1.2021E+06  2.9091E+05 -1.4930E+06  0.0000E+00  3.7169E-03  0.0000E+00  0.0000E+00
      averages -1.1827E+06  1.0336E+03 -4.7946E+04 -1.5399E+06  1.4922E+06  0.0000E+00 -3.5948E-02  0.0000E+00  0.0000E+00
                5.5682E+03  0.0000E+00  0.0000E+00  0.0000E+00  9.0000E+01  9.0000E+01  9.0000E+01  0.0000E+00  5.1030E+01
 ----------------------------------------------------------------------------------------------------------------------------------
           590 -1.1993E+06  5.6519E+02 -1.2023E+06  2.9069E+05 -1.4930E+06  0.0000E+00  3.7936E-03  0.0000E+00  0.0000E+00
       0.59000 -1.1831E+06  3.0364E+02 -4.7397E+04 -1.5392E+06  1.4921E+06  0.0000E+00 -3.6585E-02  0.0000E+00  0.0000E+00
        12.515  5.5682E+03  0.0000E+00  0.0000E+00  0.0000E+00  9.0000E+01  9.0000E+01  9.0000E+01  0.0000E+00  5.0489E+01

       rolling -1.1993E+06  5.6481E+02 -1.2021E+06  2.9087E+05 -1.4930E+06  0.0000E+00  3.6739E-03  0.0000E+00  0.0000E+00
      averages -1.1828E+06  8.7236E+02 -4.7822E+04 -1.5398E+06  1.4921E+06  0.0000E+00 -3.5535E-02  0.0000E+00  0.0000E+00
                5.5682E+03  0.0000E+00  0.0000E+00  0.0000E+00  9.0000E+01  9.0000E+01  9.0000E+01  0.0000E+00  5.0890E+01
 ----------------------------------------------------------------------------------------------------------------------------------
           600 -1.1993E+06  5.5948E+02 -1.2023E+06  2.9049E+05 -1.4928E+06  0.0000E+00  3.3867E-03  0.0000E+00  0.0000E+00
       0.60000 -1.1834E+06  3.1092E+02 -4.6453E+04 -1.5381E+06  1.4919E+06  0.0000E+00 -3.2800E-02  0.0000E+00  0.0000E+00
        12.735  5.5682E+03  0.0000E+00  0.0000E+00  0.0000E+00  9.0000E+01  9.0000E+01  9.0000E+01  0.0000E+00  4.9523E+01

       rolling -1.1993E+06  5.6198E+02 -1.2022E+06  2.9077E+05 -1.4929E+06  0.0000E+00  3.6807E-03  0.0000E+00  0.0000E+00
      averages -1.1830E+06  6.9589E+02 -4.7503E+04 -1.5394E+06  1.4921E+06  0.0000E+00 -3.5594E-02  0.0000E+00  0.0000E+00
                5.5682E+03  0.0000E+00  0.0000E+00  0.0000E+00  9.0000E+01  9.0000E+01  9.0000E+01  0.0000E+00  5.0561E+01
 ----------------------------------------------------------------------------------------------------------------------------------
           610 -1.1993E+06  5.3564E+02 -1.2022E+06  2.9120E+05 -1.4934E+06  0.0000E+00  3.3592E-03  0.0000E+00  0.0000E+00
       0.61000 -1.1828E+06  2.7329E+02 -4.8681E+04 -1.5411E+06  1.4925E+06  0.0000E+00 -3.2471E-02  0.0000E+00  0.0000E+00
        12.951  5.5682E+03  0.0000E+00  0.0000E+00  0.0000E+00  9.0000E+01  9.0000E+01  9.0000E+01  0.0000E+00  5.1541E+01

       rolling -1.1993E+06  5.6090E+02 -1.2022E+06  2.9065E+05 -1.4928E+06  0.0000E+00  3.6016E-03  0.0000E+00  0.0000E+00
      averages -1.1831E+06  5.2895E+02 -4.7094E+04 -1.5388E+06  1.4920E+06  0.0000E+00 -3.4833E-02  0.0000E+00  0.0000E+00
                5.5682E+03  0.0000E+00  0.0000E+00  0.0000E+00  9.0000E+01  9.0000E+01  9.0000E+01  0.0000E+00  5.0156E+01
 ----------------------------------------------------------------------------------------------------------------------------------
           620 -1.1993E+06  5.5472E+02 -1.2023E+06  2.9228E+05 -1.4946E+06  0.0000E+00  3.8817E-03  0.0000E+00  0.0000E+00
       0.62000 -1.1815E+06  2.2621E+02 -5.2399E+04 -1.5459E+06  1.4937E+06  0.0000E+00 -3.7489E-02  0.0000E+00  0.0000E+00
        13.160  5.5682E+03  0.0000E+00  0.0000E+00  0.0000E+00  9.0000E+01  9.0000E+01  9.0000E+01  0.0000E+00  5.5324E+01

       rolling -1.1993E+06  5.5671E+02 -1.2022E+06  2.9074E+05 -1.4929E+06  0.0000E+00  3.5795E-03  0.0000E+00  0.0000E+00
      averages -1.1831E+06  4.0522E+02 -4.7325E+04 -1.5392E+06  1.4921E+06  0.0000E+00 -3.4614E-02  0.0000E+00  0.0000E+00
                5.5682E+03  0.0000E+00  0.0000E+00  0.0000E+00  9.0000E+01  9.0000E+01  9.0000E+01  0.0000E+00  5.0356E+01
 ----------------------------------------------------------------------------------------------------------------------------------
           630 -1.1993E+06  5.1912E+02 -1.2022E+06  2.9210E+05 -1.4943E+06  0.0000E+00  3.4541E-03  0.0000E+00  0.0000E+00
       0.63000 -1.1818E+06  1.8339E+02 -5.1941E+04 -1.5451E+06  1.4934E+06  0.0000E+00 -3.3428E-02  0.0000E+00  0.0000E+00
        13.380  5.5682E+03  0.0000E+00  0.0000E+00  0.0000E+00  9.0000E+01  9.0000E+01  9.0000E+01  0.0000E+00  5.4625E+01

       rolling -1.1993E+06  5.5391E+02 -1.2022E+06  2.9095E+05 -1.4932E+06  0.0000E+00  3.6099E-03  0.0000E+00  0.0000E+00
      averages -1.1829E+06  3.3105E+02 -4.8023E+04 -1.5401E+06  1.4923E+06  0.0000E+00 -3.4904E-02  0.0000E+00  0.0000E+00
                5.5682E+03  0.0000E+00  0.0000E+00  0.0000E+00  9.0000E+01  9.0000E+01  9.0000E+01  0.0000E+00  5.1023E+01
 ----------------------------------------------------------------------------------------------------------------------------------
 ----------------------------------------------------------------------------------------------------------------------------------

          step     eng_tot    temp_tot     eng_cfg     eng_src     eng_cou     eng_bnd     eng_ang     eng_dih     eng_tet
      time(ps)      eng_pv    temp_rot     vir_cfg     vir_src     vir_cou     vir_bnd     vir_ang     vir_con     vir_tet
      cpu  (s)      volume    temp_shl     eng_shl     vir_shl       alpha        beta       gamma     vir_pmf       press

 ----------------------------------------------------------------------------------------------------------------------------------
           640 -1.1993E+06  5.4415E+02 -1.2023E+06  2.9157E+05 -1.4939E+06  0.0000E+00  3.3172E-03  0.0000E+00  0.0000E+00
       0.64000 -1.1824E+06  1.6807E+02 -5.0137E+04 -1.5429E+06  1.4930E+06  0.0000E+00 -3.2055E-02  0.0000E+00  0.0000E+00
        13.600  5.5682E+03  0.0000E+00  0.0000E+00  0.0000E+00  9.0000E+01  9.0000E+01  9.0000E+01  0.0000E+00  5.3032E+01

       rolling -1.1993E+06  5.4793E+02 -1.2022E+06  2.9112E+05 -1.4933E+06  0.0000E+00  3.5802E-03  0.0000E+00  0.0000E+00
      averages -1.1827E+06  2.8649E+02 -4.8599E+04 -1.5408E+06  1.4924E+06  0.0000E+00 -3.4616E-02  0.0000E+00  0.0000E+00
                5.5682E+03  0.0000E+00  0.0000E+00  0.0000E+00  9.0000E+01  9.0000E+01  9.0000E+01  0.0000E+00  5.1546E+01
 ----------------------------------------------------------------------------------------------------------------------------------
           650 -1.1993E+06  5.3468E+02 -1.2023E+06  2.9110E+05 -1.4934E+06  0.0000E+00  3.5056E-03  0.0000E+00  0.0000E+00
       0.65000 -1.1830E+06  1.8451E+02 -4.8436E+04 -1.5408E+06  1.4925E+06  0.0000E+00 -3.3933E-02  0.0000E+00  0.0000E+00
        13.826  5.5682E+03  0.0000E+00  0.0000E+00  0.0000E+00  9.0000E+01  9.0000E+01  9.0000E+01  0.0000E+00  5.1296E+01

       rolling -1.1993E+06  5.4574E+02 -1.2022E+06  2.9127E+05 -1.4935E+06  0.0000E+00  3.5853E-03  0.0000E+00  0.0000E+00
      averages -1.1826E+06  2.5933E+02 -4.9117E+04 -1.5415E+06  1.4926E+06  0.0000E+00 -3.4666E-02  0.0000E+00  0.0000E+00
                5.5682E+03  0.0000E+00  0.0000E+00  0.0000E+00  9.0000E+01  9.0000E+01  9.0000E+01  0.0000E+00  5.2040E+01
 ----------------------------------------------------------------------------------------------------------------------------------
           660 -1.1993E+06  5.1868E+02 -1.2023E+06  2.9012E+05 -1.4924E+06  0.0000E+00  3.1959E-03  0.0000E+00  0.0000E+00
       0.66000 -1.1840E+06  2.3399E+02 -4.5402E+04 -1.5367E+06  1.4915E+06  0.0000E+00 -3.0890E-02  0.0000E+00  0.0000E+00
        14.047  5.5682E+03  0.0000E+00  0.0000E+00  0.0000E+00  9.0000E+01  9.0000E+01  9.0000E+01  0.0000E+00  4.8205E+01

       rolling -1.1993E+06  5.4363E+02 -1.2023E+06  2.9127E+05 -1.4935E+06  0.0000E+00  3.5450E-03  0.0000E+00  0.0000E+00
      averages -1.1826E+06  2.4531E+02 -4.9091E+04 -1.5415E+06  1.4926E+06  0.0000E+00 -3.4273E-02  0.0000E+00  0.0000E+00
                5.5682E+03  0.0000E+00  0.0000E+00  0.0000E+00  9.0000E+01  9.0000E+01  9.0000E+01  0.0000E+00  5.2000E+01
[...]
        18.623  5.5682E+03  0.0000E+00  0.0000E+00  0.0000E+00  9.0000E+01  9.0000E+01  9.0000E+01  0.0000E+00  5.5782E+01

       rolling -1.1993E+06  4.6489E+02 -1.2025E+06  2.9138E+05 -1.4939E+06  0.0000E+00  3.4854E-03  0.0000E+00  0.0000E+00
      averages -1.1834E+06  6.7741E+01 -4.8945E+04 -1.5420E+06  1.4930E+06  0.0000E+00 -3.3698E-02  0.0000E+00  0.0000E+00
                5.5682E+03  0.0000E+00  0.0000E+00  0.0000E+00  9.0000E+01  9.0000E+01  9.0000E+01  0.0000E+00  5.1304E+01
 ----------------------------------------------------------------------------------------------------------------------------------
 ----------------------------------------------------------------------------------------------------------------------------------

          step     eng_tot    temp_tot     eng_cfg     eng_src     eng_cou     eng_bnd     eng_ang     eng_dih     eng_tet
      time(ps)      eng_pv    temp_rot     vir_cfg     vir_src     vir_cou     vir_bnd     vir_ang     vir_con     vir_tet
      cpu  (s)      volume    temp_shl     eng_shl     vir_shl       alpha        beta       gamma     vir_pmf       press

 ----------------------------------------------------------------------------------------------------------------------------------
           880 -1.1993E+06  4.3412E+02 -1.2026E+06  2.9192E+05 -1.4945E+06  0.0000E+00  3.0889E-03  0.0000E+00  0.0000E+00
       0.88000 -1.1831E+06  4.1040E+01 -5.0730E+04 -1.5444E+06  1.4936E+06  0.0000E+00 -2.9898E-02  0.0000E+00  0.0000E+00
        18.841  5.5682E+03  0.0000E+00  0.0000E+00  0.0000E+00  9.0000E+01  9.0000E+01  9.0000E+01  0.0000E+00  5.2839E+01

       rolling -1.1993E+06  4.5988E+02 -1.2025E+06  2.9148E+05 -1.4940E+06  0.0000E+00  3.5179E-03  0.0000E+00  0.0000E+00
      averages -1.1834E+06  6.1489E+01 -4.9254E+04 -1.5424E+06  1.4931E+06  0.0000E+00 -3.4014E-02  0.0000E+00  0.0000E+00
                5.5682E+03  0.0000E+00  0.0000E+00  0.0000E+00  9.0000E+01  9.0000E+01  9.0000E+01  0.0000E+00  5.1572E+01
 ----------------------------------------------------------------------------------------------------------------------------------
           890 -1.1993E+06  4.4258E+02 -1.2026E+06  2.9187E+05 -1.4945E+06  0.0000E+00  3.3267E-03  0.0000E+00  0.0000E+00
       0.89000 -1.1832E+06  4.1009E+01 -5.0438E+04 -1.5441E+06  1.4936E+06  0.0000E+00 -3.2165E-02  0.0000E+00  0.0000E+00
        19.065  5.5682E+03  0.0000E+00  0.0000E+00  0.0000E+00  9.0000E+01  9.0000E+01  9.0000E+01  0.0000E+00  5.2612E+01

       rolling -1.1993E+06  4.5577E+02 -1.2026E+06  2.9142E+05 -1.4940E+06  0.0000E+00  3.4747E-03  0.0000E+00  0.0000E+00
      averages -1.1835E+06  5.5947E+01 -4.9061E+04 -1.5422E+06  1.4931E+06  0.0000E+00 -3.3602E-02  0.0000E+00  0.0000E+00
                5.5682E+03  0.0000E+00  0.0000E+00  0.0000E+00  9.0000E+01  9.0000E+01  9.0000E+01  0.0000E+00  5.1354E+01
 ----------------------------------------------------------------------------------------------------------------------------------
           900 -1.1993E+06  4.3624E+02 -1.2026E+06  2.9164E+05 -1.4943E+06  0.0000E+00  3.2094E-03  0.0000E+00  0.0000E+00
       0.90000 -1.1835E+06  4.1949E+01 -4.9670E+04 -1.5431E+06  1.4934E+06  0.0000E+00 -3.0993E-02  0.0000E+00  0.0000E+00
        19.274  5.5682E+03  0.0000E+00  0.0000E+00  0.0000E+00  9.0000E+01  9.0000E+01  9.0000E+01  0.0000E+00  5.1813E+01

       rolling -1.1993E+06  4.4973E+02 -1.2026E+06  2.9137E+05 -1.4939E+06  0.0000E+00  3.4474E-03  0.0000E+00  0.0000E+00
      averages -1.1836E+06  5.2106E+01 -4.8885E+04 -1.5420E+06  1.4931E+06  0.0000E+00 -3.3334E-02  0.0000E+00  0.0000E+00
                5.5682E+03  0.0000E+00  0.0000E+00  0.0000E+00  9.0000E+01  9.0000E+01  9.0000E+01  0.0000E+00  5.1139E+01
 ----------------------------------------------------------------------------------------------------------------------------------
           910 -1.1993E+06  4.3320E+02 -1.2027E+06  2.9125E+05 -1.4939E+06  0.0000E+00  3.0357E-03  0.0000E+00  0.0000E+00
       0.91000 -1.1839E+06  4.1750E+01 -4.8376E+04 -1.5414E+06  1.4930E+06  0.0000E+00 -2.9338E-02  0.0000E+00  0.0000E+00
        19.505  5.5682E+03  0.0000E+00  0.0000E+00  0.0000E+00  9.0000E+01  9.0000E+01  9.0000E+01  0.0000E+00  5.0523E+01

       rolling -1.1993E+06  4.4811E+02 -1.2026E+06  2.9131E+05 -1.4939E+06  0.0000E+00  3.3878E-03  0.0000E+00  0.0000E+00
      averages -1.1837E+06  4.9175E+01 -4.8669E+04 -1.5417E+06  1.4930E+06  0.0000E+00 -3.2753E-02  0.0000E+00  0.0000E+00
                5.5682E+03  0.0000E+00  0.0000E+00  0.0000E+00  9.0000E+01  9.0000E+01  9.0000E+01  0.0000E+00  5.0916E+01
 ----------------------------------------------------------------------------------------------------------------------------------
           920 -1.1993E+06  4.3771E+02 -1.2027E+06  2.9170E+05 -1.4944E+06  0.0000E+00  3.4896E-03  0.0000E+00  0.0000E+00
       0.92000 -1.1835E+06  4.3012E+01 -4.9854E+04 -1.5434E+06  1.4935E+06  0.0000E+00 -3.3680E-02  0.0000E+00  0.0000E+00
        19.712  5.5682E+03  0.0000E+00  0.0000E+00  0.0000E+00  9.0000E+01  9.0000E+01  9.0000E+01  0.0000E+00  5.2005E+01

       rolling -1.1993E+06  4.4708E+02 -1.2026E+06  2.9132E+05 -1.4939E+06  0.0000E+00  3.3408E-03  0.0000E+00  0.0000E+00
      averages -1.1837E+06  4.6581E+01 -4.8711E+04 -1.5418E+06  1.4931E+06  0.0000E+00 -3.2297E-02  0.0000E+00  0.0000E+00
                5.5682E+03  0.0000E+00  0.0000E+00  0.0000E+00  9.0000E+01  9.0000E+01  9.0000E+01  0.0000E+00  5.0949E+01
 ----------------------------------------------------------------------------------------------------------------------------------
           930 -1.1993E+06  4.4608E+02 -1.2028E+06  2.9194E+05 -1.4947E+06  0.0000E+00  3.1674E-03  0.0000E+00  0.0000E+00
       0.93000 -1.1832E+06  4.7555E+01 -5.0562E+04 -1.5444E+06  1.4938E+06  0.0000E+00 -3.0618E-02  0.0000E+00  0.0000E+00
        19.938  5.5682E+03  0.0000E+00  0.0000E+00  0.0000E+00  9.0000E+01  9.0000E+01  9.0000E+01  0.0000E+00  5.2759E+01

       rolling -1.1993E+06  4.4617E+02 -1.2026E+06  2.9150E+05 -1.4941E+06  0.0000E+00  3.3649E-03  0.0000E+00  0.0000E+00
      averages -1.1835E+06  4.4953E+01 -4.9272E+04 -1.5425E+06  1.4933E+06  0.0000E+00 -3.2521E-02  0.0000E+00  0.0000E+00
                5.5682E+03  0.0000E+00  0.0000E+00  0.0000E+00  9.0000E+01  9.0000E+01  9.0000E+01  0.0000E+00  5.1494E+01
 ----------------------------------------------------------------------------------------------------------------------------------
           940 -1.1993E+06  4.2483E+02 -1.2027E+06  2.9164E+05 -1.4944E+06  0.0000E+00  3.1311E-03  0.0000E+00  0.0000E+00
       0.94000 -1.1836E+06  5.2422E+01 -4.9763E+04 -1.5433E+06  1.4935E+06  0.0000E+00 -3.0279E-02  0.0000E+00  0.0000E+00
        20.150  5.5682E+03  0.0000E+00  0.0000E+00  0.0000E+00  9.0000E+01  9.0000E+01  9.0000E+01  0.0000E+00  5.1824E+01

       rolling -1.1993E+06  4.4285E+02 -1.2026E+06  2.9167E+05 -1.4943E+06  0.0000E+00  3.3444E-03  0.0000E+00  0.0000E+00
      averages -1.1834E+06  4.4556E+01 -4.9829E+04 -1.5433E+06  1.4934E+06  0.0000E+00 -3.2322E-02  0.0000E+00  0.0000E+00
                5.5682E+03  0.0000E+00  0.0000E+00  0.0000E+00  9.0000E+01  9.0000E+01  9.0000E+01  0.0000E+00  5.2017E+01
 ----------------------------------------------------------------------------------------------------------------------------------
           950 -1.1993E+06  3.9839E+02 -1.2026E+06  2.9193E+05 -1.4946E+06  0.0000E+00  3.4507E-03  0.0000E+00  0.0000E+00
       0.95000 -1.1833E+06  5.7518E+01 -5.0732E+04 -1.5445E+06  1.4937E+06  0.0000E+00 -3.3335E-02  0.0000E+00  0.0000E+00
        20.363  5.5682E+03  0.0000E+00  0.0000E+00  0.0000E+00  9.0000E+01  9.0000E+01  9.0000E+01  0.0000E+00  5.2588E+01

       rolling -1.1993E+06  4.3945E+02 -1.2027E+06  2.9180E+05 -1.4945E+06  0.0000E+00  3.3294E-03  0.0000E+00  0.0000E+00
      averages -1.1833E+06  4.5180E+01 -5.0236E+04 -1.5438E+06  1.4936E+06  0.0000E+00 -3.2175E-02  0.0000E+00  0.0000E+00
                5.5682E+03  0.0000E+00  0.0000E+00  0.0000E+00  9.0000E+01  9.0000E+01  9.0000E+01  0.0000E+00  5.2391E+01
 ----------------------------------------------------------------------------------------------------------------------------------
 ----------------------------------------------------------------------------------------------------------------------------------

          step     eng_tot    temp_tot     eng_cfg     eng_src     eng_cou     eng_bnd     eng_ang     eng_dih     eng_tet
      time(ps)      eng_pv    temp_rot     vir_cfg     vir_src     vir_cou     vir_bnd     vir_ang     vir_con     vir_tet
      cpu  (s)      volume    temp_shl     eng_shl     vir_shl       alpha        beta       gamma     vir_pmf       press

 ----------------------------------------------------------------------------------------------------------------------------------
           960 -1.1993E+06  4.1878E+02 -1.2027E+06  2.9168E+05 -1.4944E+06  0.0000E+00  3.1245E-03  0.0000E+00  0.0000E+00
       0.96000 -1.1836E+06  6.9877E+01 -4.9950E+04 -1.5435E+06  1.4936E+06  0.0000E+00 -3.0266E-02  0.0000E+00  0.0000E+00
        20.629  5.5682E+03  0.0000E+00  0.0000E+00  0.0000E+00  9.0000E+01  9.0000E+01  9.0000E+01  0.0000E+00  5.1964E+01

       rolling -1.1993E+06  4.3608E+02 -1.2027E+06  2.9186E+05 -1.4945E+06  0.0000E+00  3.3165E-03  0.0000E+00  0.0000E+00
      averages -1.1832E+06  4.6785E+01 -5.0424E+04 -1.5441E+06  1.4937E+06  0.0000E+00 -3.2050E-02  0.0000E+00  0.0000E+00
                5.5682E+03  0.0000E+00  0.0000E+00  0.0000E+00  9.0000E+01  9.0000E+01  9.0000E+01  0.0000E+00  5.2552E+01
 ----------------------------------------------------------------------------------------------------------------------------------
           970 -1.1993E+06  4.1894E+02 -1.2028E+06  2.9192E+05 -1.4947E+06  0.0000E+00  3.1944E-03  0.0000E+00  0.0000E+00
       0.97000 -1.1834E+06  8.3723E+01 -5.0608E+04 -1.5445E+06  1.4938E+06  0.0000E+00 -3.0860E-02  0.0000E+00  0.0000E+00
        20.908  5.5682E+03  0.0000E+00  0.0000E+00  0.0000E+00  9.0000E+01  9.0000E+01  9.0000E+01  0.0000E+00  5.2611E+01

       rolling -1.1993E+06  4.3094E+02 -1.2027E+06  2.9179E+05 -1.4945E+06  0.0000E+00  3.2374E-03  0.0000E+00  0.0000E+00
      averages -1.1834E+06  5.0040E+01 -5.0186E+04 -1.5438E+06  1.4936E+06  0.0000E+00 -3.1295E-02  0.0000E+00  0.0000E+00
                5.5682E+03  0.0000E+00  0.0000E+00  0.0000E+00  9.0000E+01  9.0000E+01  9.0000E+01  0.0000E+00  5.2283E+01
 ----------------------------------------------------------------------------------------------------------------------------------
           980 -1.1993E+06  3.8336E+02 -1.2027E+06  2.9187E+05 -1.4945E+06  0.0000E+00  3.5016E-03  0.0000E+00  0.0000E+00
       0.98000 -1.1836E+06  9.5986E+01 -5.0359E+04 -1.5441E+06  1.4937E+06  0.0000E+00 -3.3831E-02  0.0000E+00  0.0000E+00
        21.210  5.5682E+03  0.0000E+00  0.0000E+00  0.0000E+00  9.0000E+01  9.0000E+01  9.0000E+01  0.0000E+00  5.2114E+01

       rolling -1.1993E+06  4.2576E+02 -1.2027E+06  2.9175E+05 -1.4944E+06  0.0000E+00  3.2436E-03  0.0000E+00  0.0000E+00
      averages -1.1835E+06  5.4881E+01 -5.0057E+04 -1.5436E+06  1.4936E+06  0.0000E+00 -3.1350E-02  0.0000E+00  0.0000E+00
                5.5682E+03  0.0000E+00  0.0000E+00  0.0000E+00  9.0000E+01  9.0000E+01  9.0000E+01  0.0000E+00  5.2119E+01
 ----------------------------------------------------------------------------------------------------------------------------------
           990 -1.1993E+06  4.0649E+02 -1.2028E+06  2.9085E+05 -1.4936E+06  0.0000E+00  3.0076E-03  0.0000E+00  0.0000E+00
       0.99000 -1.1846E+06  1.1083E+02 -4.7125E+04 -1.5399E+06  1.4928E+06  0.0000E+00 -2.9147E-02  0.0000E+00  0.0000E+00
        21.501  5.5682E+03  0.0000E+00  0.0000E+00  0.0000E+00  9.0000E+01  9.0000E+01  9.0000E+01  0.0000E+00  4.9105E+01

       rolling -1.1993E+06  4.2180E+02 -1.2027E+06  2.9170E+05 -1.4944E+06  0.0000E+00  3.2506E-03  0.0000E+00  0.0000E+00
      averages -1.1835E+06  6.1222E+01 -4.9878E+04 -1.5434E+06  1.4935E+06  0.0000E+00 -3.1419E-02  0.0000E+00  0.0000E+00
                5.5682E+03  0.0000E+00  0.0000E+00  0.0000E+00  9.0000E+01  9.0000E+01  9.0000E+01  0.0000E+00  5.1915E+01
 ----------------------------------------------------------------------------------------------------------------------------------
          1000 -1.1993E+06  3.7954E+02 -1.2027E+06  2.9114E+05 -1.4938E+06  0.0000E+00  3.2791E-03  0.0000E+00  0.0000E+00
       1.00000 -1.1845E+06  1.1872E+02 -4.7910E+04 -1.5409E+06  1.4930E+06  0.0000E+00 -3.1685E-02  0.0000E+00  0.0000E+00
        21.746  5.5682E+03  0.0000E+00  0.0000E+00  0.0000E+00  9.0000E+01  9.0000E+01  9.0000E+01  0.0000E+00  4.9684E+01

       rolling -1.1993E+06  4.1888E+02 -1.2027E+06  2.9160E+05 -1.4943E+06  0.0000E+00  3.2229E-03  0.0000E+00  0.0000E+00
      averages -1.1837E+06  6.8644E+01 -4.9547E+04 -1.5430E+06  1.4934E+06  0.0000E+00 -3.1158E-02  0.0000E+00  0.0000E+00
                5.5682E+03  0.0000E+00  0.0000E+00  0.0000E+00  9.0000E+01  9.0000E+01  9.0000E+01  0.0000E+00  5.1570E+01
 ----------------------------------------------------------------------------------------------------------------------------------


 run terminating...  elapsed cpu time:       21.763 sec, job time:   100000.000 sec, close time:      100.000 sec



 sample of final configuration on node zero

        i       x(i)        y(i)        z(i)       vx(i)       vy(i)       vz(i)       fx(i)       fy(i)       fz(i)


        1  1.5467E+00 -1.3461E+00 -4.4350E+00 -4.0831E+00 -2.4882E-01  3.0212E+00  2.4723E+04 -2.7913E+03 -2.6143E+04
       16  2.5106E+00  8.6876E+00 -6.3817E+00  3.3996E-01 -1.5456E+00 -2.0661E+00  1.7091E+04 -1.1093E+04 -8.2435E+03
       31 -6.3711E+00  2.5404E+00 -4.3599E+00  2.0696E+00  3.1619E-01  1.5702E+00  3.2844E+04  2.0358E+03 -1.1760E+04
       46 -3.7264E+00  6.5425E+00 -2.3831E+00 -5.5263E+00 -1.4104E+00  3.3220E+00  1.5393E+04 -5.5450E+03  5.8526E+03
       61  7.8910E+00 -1.0626E+00  4.7081E-01  4.3738E+00  4.4541E+00 -1.3145E-01  1.6136E+04 -5.0121E+03 -5.6741E+03
       76  8.4739E+00 -6.5247E+00  2.0896E+00  4.4360E+00  1.4514E+00 -1.4680E+00 -1.0450E+04 -7.9923E+03 -5.6199E+02
       91 -8.6174E+00 -2.5640E+00  2.3948E+00 -4.1197E+00  2.3705E+00 -5.6861E-01  2.0095E+04 -2.8258E+04 -1.5227E+04
      106 -5.9440E+00  8.9138E+00 -5.8735E-01  5.8685E-01 -2.3573E+00 -4.4851E+00 -1.5041E+04  2.2316E+03 -8.8007E+02
      121  2.6154E+00  2.9175E+00 -3.0829E+00 -3.6778E+00 -4.2386E+00 -3.7450E+00  6.8580E+03  4.8483E+03 -5.5971E+03
      136  8.3295E+00  7.0176E+00 -1.1487E+00  1.8535E+00  1.4037E-01  5.6539E+00 -7.1544E+02  2.6708E+03 -4.6999E+03
      151 -1.2888E+00  8.6963E-01 -4.2606E+00  4.6893E+00 -5.2222E+00 -1.3715E+00  6.3014E+03  1.1784E+04 -1.1883E+04
      166 -3.8086E+00 -7.6198E+00 -1.4347E+00 -2.5156E+00 -3.2579E+00 -5.9976E-01 -5.8761E+03  1.0170E+03  5.0710E+02
      181 -1.0114E+01  3.1890E+00 -2.5590E+00 -6.3716E+00 -3.1810E+00 -1.9507E+00  1.9579E+04  1.3314E+03 -5.1342E+03
      196  7.5014E+00  8.9654E+00  3.3523E+00 -6.8841E+00 -6.6971E-01 -8.1620E+00  7.7691E+03 -4.3349E+03  1.4474E+04
      211 -7.6073E+00  1.0925E+00  3.3650E+00  3.1751E+00  3.5919E+00  4.3684E+00  1.4794E+04 -5.0573E+03  3.9717E+03
      226 -4.1545E+00  6.5530E+00  6.3657E+00 -3.0311E+00 -1.9606E+00  3.2433E+00  1.6728E+04  4.3871E+03  3.7451E+02
      241  6.5213E+00 -1.1203E+00  4.3639E+00 -1.9341E+00 -1.8127E+00  2.9316E+00  3.7861E+03  4.9197E+03 -3.2545E+03
      256  8.1953E+00  1.0053E+01  1.2324E+00  2.1763E+00 -7.7038E+00 -2.3544E+00 -1.3958E+04  1.2898E+04 -7.9475E+03
      271 -6.0109E+00 -2.6566E+00  5.5322E+00  1.9694E+00  4.9558E-01 -4.3523E+00  6.0179E+03  8.7151E+03 -1.8382E+04
      286 -6.0047E+00  5.0630E+00  6.0210E+00  9.0736E-01 -8.0354E+00 -1.7941E+00 -6.0861E+03 -2.6755E+04 -1.1255E+03


 VNL skipping run statistics - skips per timestep: average    6.31 minimum    1 maximum    9


 run terminated after     1000 steps (     1.000 ps), final averages calculated over     1000 steps (     1.000 ps).


 ----------------------------------------------------------------------------------------------------------------------------------

          step     eng_tot    temp_tot     eng_cfg     eng_src     eng_cou     eng_bnd     eng_ang     eng_dih     eng_tet
      time(ps)      eng_pv    temp_rot     vir_cfg     vir_src     vir_cou     vir_bnd     vir_ang     vir_con     vir_tet
      cpu  (s)      volume    temp_shl     eng_shl     vir_shl       alpha        beta       gamma     vir_pmf       press

 ----------------------------------------------------------------------------------------------------------------------------------
          1000 -1.1993E+06  5.6737E+02 -1.2022E+06  2.9075E+05 -1.4929E+06  0.0000E+00  3.6438E-03  0.0000E+00  0.0000E+00
       1.00000 -1.1830E+06  7.4426E+02 -4.7336E+04 -1.5392E+06  1.4920E+06  0.0000E+00 -3.5238E-02  0.0000E+00  0.0000E+00
        21.769  5.5682E+03  0.0000E+00  0.0000E+00  0.0000E+00  9.0000E+01  9.0000E+01  9.0000E+01  0.0000E+00  5.0434E+01

       r.m.s.   1.9792E+00  9.2466E+01  3.3525E+02  1.7018E+03  1.8540E+03  0.0000E+00  4.0790E-04  0.0000E+00  0.0000E+00
      fluctu-   1.8548E+03  8.0190E+02  5.5029E+03  7.3664E+03  1.8558E+03  0.0000E+00  3.9183E-03  0.0000E+00  0.0000E+00
      ations    0.0000E+00  0.0000E+00  0.0000E+00  0.0000E+00  0.0000E+00  0.0000E+00  0.0000E+00  0.0000E+00  5.3638E+00
 ----------------------------------------------------------------------------------------------------------------------------------

 Extended energy:         7.8614E+02      r.m.s. fluctuations:    6.3011E+02

 ----------------------------------------------------------------------------------------------------------------------------------


            Approximate 3D Diffusion Coefficients and square root of MSDs

            atom         DC (10^-9 m^2 s^-1)   Sqrt[MSD] (Ang)

            Si                0.0000E+00          2.3312E-01
            O                 0.0000E+00          3.0040E-01
            C                 3.9291E+01          3.9875E+00
            H                 5.0660E+01          4.7441E+00


                Average pressure tensor  (katms)                              r.m.s. fluctuations

           4.9337E+01  9.7406E-02  2.0481E-01                          6.9426E+00  2.0966E+00  3.0719E+00
           9.7406E-02  5.1548E+01  1.6874E-01                          2.0966E+00  7.1817E+00  3.1114E+00
           2.0481E-01  1.6874E-01  5.0418E+01                          3.0719E+00  3.1114E+00  8.3194E+00

            trace/3    5.0434E+01



 time elapsed since job start:       21.769 sec



 *************************************************************************************************************************
 **************                                                                                             **************
 **************  Thank you for using the DL_POLY_4 package in your work.  Please, acknowledge our efforts   **************
 **************                                                                                             **************
 **************  by including the following references when publishing data obtained using DL_POLY_4:       **************
 **************                                                                                             **************
 **************  I.T. Todorov, W. Smith, K. Trachenko & M.T. Dove, `J. Mater. Chem.', 16, 1911-1918 (2006)  **************
 **************  I.J. Bush, I.T. Todorov & W. Smith, `Comp. Phys. Commun.', 175, 323-329 (2006)             **************
 **************                                                                                             **************
 *************************************************************************************************************************

