 ******************************************************************
 *************  stfc/ccp5  program  library  package  ** D ********
 *************  daresbury laboratory general purpose  *** L *******
 **         **  classical molecular dynamics program  **** \ ******
 ** DL_POLY **  authors:   i.t.todorov   &   w.smith  ***** P *****
 **         **  version:   4.09.1  /  november 2018   ****** O ****
 *************  execution on           1 process(es)  ******* L ***
 *************  contributors' list:                   ******** Y **
 *************  ------------------------------------  *************
 *************  i.j.bush, h.a.boateng, r.davidchak,   *************
 *************  m.a.seaton, a.v.brukhno, a.m.elena,   *************
 *************  s.l.daraszewicz,g.khara,s.t.murphy    *************
 ******************************************************************

 ******************************************************************
 **** birthday: Dec 16 2022 @ 15:29:49                         ****
 ****  machine: chip                                           ****
 ****  builder: Alistar OTTOCHIAN                              ****
 **** compiler: gfortran v8.5.0 20210514 (Red Hat 8.5.0-15)    ****
 ****      MPI: v3.1                                           ****
 **** MPI libs: Open MPI v3.0.0, package: Open MPI alistar@chi ****
 **** MPI libs: p Distribution, ident: 3.0.0, repo rev: v3.0.0 ****
 **** MPI libs: , Sep 12, 2017                                 ****
 **** executed: 2026-01-30  @  16:04:24.049  (GMT+01:00)       ****
 ******************************************************************

 ******************************************************************
 ****  ~~~~~~~~~~~~~~~~~~~~~~~~~~~~~~~~~~~~~~~~~~~~~~~~~~~~~~  ****
 ****  Please do cite `J. Mater. Chem.', 16, 1911-1918 (2006)  ****
 ****  ^^^^^^^^^^^^^^^^^^^^^^^^^^^^^^^^^^^^^^^^^^^^^^^^^^^^^^  ****
 ****  when publishing research data obtained using DL_POLY_4  ****
 ****  ^^^^^^^^^^^^^^^^^^^^^^^^^^^^^^^^^^^^^^^^^^^^^^^^^^^^^^  ****
 ******************************************************************

 HISTORY file is HISTORY.dlpolyhist

 I/O read method: parallel by using MPI-I/O (assumed)
 I/O readers (assumed)                   1
 I/O read batch size (assumed)     2000000
 I/O read buffer size (assumed)      20000
 I/O parallel read error checking off (assumed)

 I/O write method: parallel by using MPI-I/O (assumed)
 I/O write type: data sorting on (assumed)
 I/O writers (assumed)                   1
 I/O write batch size (assumed)    2000000
 I/O write buffer size (assumed)     20000
 I/O parallel write error checking off (assumed)

 *** warning - DD cutoff check: rcut=Max(rcut,rvdw,rmet,rkim,rcbnd,2.0_wp*rcter+1.0e-6_wp) ! ***

 warning issued     40

 *** warning - tentative cutoff reset to   6.500 Angstroms !!! ***



 node/domain decomposition (x,y,z):      1     1     1

 pure cutoff driven limit on largest possible decomposition:    18 nodes/domains (3,3,2)

 pure cutoff driven limit on largest balanced decomposition:     1 nodes/domains (1,1,1)

 cutoffs driven limit on largest possible decomposition:    18 nodes/domains (3,3,2)

 cutoffs driven limit on largest balanced decomposition:     1 nodes/domains (1,1,1)

 link-cell decomposition 1 (x,y,z):      3     3     2

 warning issued    100

 *** warning - primary link cell algorithm has a link cell dimension that is < 3 !!! ***
 *** DL_POLY_4 RUNNING IN LOW EFFICIENCY MODE !!! ***


 link-cell decomposition 2 (x,y,z):     10    10     6

 *** pre-scanning stage (set_bounds) DONE ***

 time elapsed since job start:        0.016 sec

 **********************************************************************************************************************************
 **********************************************************************************************************************************
 **********************************************************************************************************************************
 ************************     Silicalite simulation : Sauer model sans shell + Benzene                     ************************
 **********************************************************************************************************************************
 **********************************************************************************************************************************
 **********************************************************************************************************************************


 SIMULATION CONTROL PARAMETERS

 warning issued     35

 *** warning - DL_POLY_2/Classic directive 'delr - Verlet shell strip cutoff' defaulted to ***
 *** DL_POLY_4 directive 'rpad - real space cutoff padding option' ; rpad=Max(rpad,delr/4) !!! ***

 cutoff padding (Angs)               1.2500E-01

 vdw cutoff (Angs)                   6.5000E+00

 vdw force-shifting option on

 real space cutoff (Angs)            6.5000E+00

 Electrostatics : Smooth Particle Mesh Ewald
 Ewald sum precision                 1.0000E-06
 Ewald convergence parameter (A^-1)  5.0333E-01
 Ewald kmax1 kmax2 kmax3   (x2)    20   20   14
 DaFT adjusted kmax values (x2)    20   20   15
 B-spline interpolation order            8
 k-space evaluation interval (steps)     1

 density variation allowance (%)     1.0000E+01

 radomisation seeds supplied
 (seed1,seed2,seed3)               14    1 2022

 selected number of timesteps       100000

 simulation temperature (K)          3.0000E+02

 simulation pressure (katms)         0.0000E+00

 Integration : Velocity Verlet
 Ensemble : NVT Nose-Hoover
 thermostat relaxation time (ps)     1.0000E+00

 trajectory file option on
 trajectory file start                   0
 trajectory file interval             1000
 trajectory file info key                0

 data printing interval (steps)        100

 statistics file interval              100

 no strict option on
 *** Warning *** It skips printing inessential information in OUTPUT such as many warnings, FIELD
 *** wArning *** digested information and full iteration cycles information from CGM based routines!
 *** waRning *** However, it also assumes some, deemed safe, defaults for some specified as well as
 *** warNing *** unspecified by the user options, that may or may not be needed for the simulation to run!
 *** warnIng *** The defaults are deemed to deliver safer passage as well as optimal performance without
 *** warniNg *** sacrificing on accuracy!  While it may, by chance, help to pass previously failing runs
 *** warninG *** it may as well lead to a run failure without warnings!  Beware, avoid usage if uncertain!

 warning issued     36

 *** warning - DL_POLY_2/Classic directive 'mult(iple timestep)' defaulted to ***
 *** DL_POLY_4 directive 'infrequent k-space SPME evaluation' !!! ***


 clean start requested

 Extended Coulombic eXclusion : NO

 fixed simulation timestep (ps)      1.0000E-03

 data dumping interval (steps)        1000

 subcelling threshold density        5.0000E+01

 allocated job run time   (s)        1.0000E+05

 allocated job close time (s)        1.0000E+02


 SYSTEM SPECIFICATION

 energy units = kJ/mol


 number of molecular types               2


 molecular species type                  1

 name of species:             ZEOLITE ZSM5 (SILICALITE)               

 number of molecules                     1

 number of atoms/sites                 288

 atomic characteristics:

               site    name             mass         charge      repeat      freeze

                  1    Si            28.085500       4.000000        96         0
                 97    O             15.999400      -2.000000       192         0


 molecular species type                  2

 name of species:             BENZENE                                 

 number of molecules                     1

 number of atoms/sites                  12

 atomic characteristics:

               site    name             mass         charge      repeat      freeze

                  1    C             12.000000      -0.075000         6         0
                  7    H              1.008000       0.075000         6         0


 number of rigid bodies                  1

 rigid body details:

                  unit      size            indices

                     1        12         1         2         3         4         5         6         7         8         9        10
                                            11        12


 total number of molecules               2

 total number of sites                 300


 number of specified vdw potentials                5

       pair     atom 1  atom 2     key                              parameters

          1     Si      Si         buck             0.000000            0.300170            0.000000            0.000000            0.000000            0.000000            0.000000
          2     O       O          buck             0.000000            0.300170            0.000000            0.000000            0.000000            0.000000            0.000000
          3     Si      O          buck        149643.890000            0.300170            0.000000            0.000000            0.000000            0.000000            0.000000
          4     C       O          12-6       1335000.000000          904.000000            0.000000            0.000000            0.000000            0.000000            0.000000
          5     H       O          12-6        159900.000000          255.400000            0.000000            0.000000            0.000000            0.000000            0.000000

 warning issued    120

 *** warning - unspecified atom-atom interactions set to zero !!! ***



 number of specified three-body potentials         1

    triplet     atom 1  atom 2  atom 3     key                      parameters

          1     O       Si      O          shrm       17.750400     109.466667       0.327690       0.327690       2.000000

 configuration file name: 

          Diffusion in Zeolites. ZSM5 (Silicate) Crystal Structure, Si(96)O(192) +


 selected image convention               2


 simulation cell vectors

       20.3183600000        0.0000000000        0.0000000000
        0.0000000000       20.1714600000        0.0000000000
        0.0000000000        0.0000000000       13.5858629500


 system volume            5568.17932579    

 *** all reading and connectivity checks DONE ***

 time elapsed since job start:        0.018 sec

 *** initialisation and haloing DONE ***

 time elapsed since job start:        0.019 sec

 //==============================================================\\
 ||                                                              ||
 ||           SUMMARY  OF  TOPOLOGICAL  DECOMPOSITION            ||
 ||                                                              ||
 ||--------------------------------------------------------------||
 ||  INTERACTION  OR  TYPE  |  GRAND TOTAL | Fully/Partly FROZEN ||
 ||-------------------------+--------------+---------------------||
 ||  all particles/sites    |         300  |  F            0     ||
 ||  free particles         |         288  |  F            0     ||
 ||  core-shell units       |           0  |  P            0     ||
 ||  constraint bond units  |           0  |  F            0     ||
 ||  PMF units              |           0  |  P         NONE     ||
 ||  rigid body units       |           1  |  F            0     ||
 ||  tethered atom units    |           0  |  F            0     ||
 ||  chemical bond units    |           0  |  F            0     ||
 ||  bond angle units       |           0  |  F            0     ||
 ||  dihedral angle units   |           0  |  F            0     ||
 ||  inversion angle units  |           0  |  F            0     ||
 \\==============================================================//


 *** bookkeeping DONE ***

 time elapsed since job start:        0.019 sec


 degrees of freedom break-down list
 ----------------------------------
 free particles                 864
 centre of mass                  -3
 non-periodicity                  0
 frozen free particles            0
 shell-pseudo                     0
 constrained                      0
 RB translational                 3
 RB rotational                    3
 ----------------------------------
 total (real)                   867

 *** temperature setting DONE ***

 time elapsed since job start:        0.021 sec


 sample of starting configuration on node zero

        i       x(i)        y(i)        z(i)       vx(i)       vy(i)       vz(i)


        1  1.4730E+00 -1.0837E+00 -4.4827E+00  4.5933E+00  1.5145E+00  4.0501E-01
       16  2.4713E+00  8.7049E+00 -6.4092E+00  5.2716E+00 -1.3794E+00 -3.6215E+00
       31 -6.2741E+00  2.6468E+00 -4.4810E+00 -4.4461E+00 -9.0610E-01 -3.4616E+00
       46 -3.7398E+00  6.5486E+00 -2.4718E+00  3.0051E+00  1.5488E+00  2.3605E+00
       61  7.7145E+00 -1.1333E+00  5.1512E-01 -3.9739E-01  1.0674E+00  2.5929E+00
       76  8.5453E+00 -6.5882E+00  2.2894E+00  5.3385E+00  3.0843E+00 -2.3282E-01
       91 -8.5965E+00 -2.5947E+00  2.1618E+00 -7.9262E-01 -2.5392E+00  2.9632E-01
      106 -5.9340E+00  8.8895E+00 -4.2166E-01  1.3664E+00 -4.6389E+00 -7.2297E-01
      121  2.6693E+00  2.9078E+00 -3.2592E+00 -2.9935E+00 -3.1727E+00 -1.9608E+00
      136  8.5363E+00  7.0068E+00 -1.0459E+00 -7.7038E+00 -5.2814E+00  1.2331E-01
      151 -1.4608E+00  1.0934E+00 -4.6261E+00  3.7387E+00 -7.2527E+00  7.8482E+00
      166 -3.7273E+00 -7.5298E+00 -1.7592E+00 -2.6794E+00 -6.6618E-01  1.5703E+00
      181 -9.9001E+00  2.8966E+00 -2.6548E+00  1.6815E+00  3.7945E+00 -1.7753E+00
      196  7.4963E+00  9.1911E+00  3.3953E+00 -9.8249E-01  5.2305E+00 -1.9525E+00
      211 -7.6045E+00  1.0725E+00  3.6447E+00 -3.3357E-01 -3.0481E+00 -2.4005E+00
      226 -3.9899E+00  6.7687E+00  6.2443E+00  6.0013E+00 -2.7718E+00  3.7986E+00
      241  6.8526E+00 -1.1248E+00  4.5092E+00 -5.4497E+00  3.6348E+00 -2.4671E-02
      256  8.3321E+00 -9.9013E+00  1.1942E+00  3.3133E+00 -5.5282E+00 -3.0019E+00
      271 -6.0414E+00 -2.4904E+00  5.4357E+00 -1.9064E+00  8.1201E-01  3.0838E+00
      286 -6.0678E+00  5.1972E+00  6.1045E+00  2.0457E+00  1.2110E+00  2.9968E+00



 time elapsed since job start:        0.021 sec

 forces evaluated at (re)start for VV integration...

 ----------------------------------------------------------------------------------------------------------------------------------

          step     eng_tot    temp_tot     eng_cfg     eng_src     eng_cou     eng_bnd     eng_ang     eng_dih     eng_tet
      time(ps)      eng_pv    temp_rot     vir_cfg     vir_src     vir_cou     vir_bnd     vir_ang     vir_con     vir_tet
      cpu  (s)      volume    temp_shl     eng_shl     vir_shl       alpha        beta       gamma     vir_pmf       press

 ----------------------------------------------------------------------------------------------------------------------------------
             0 -1.1993E+06  3.0000E+02 -1.2004E+06  2.8031E+05 -1.4807E+06  0.0000E+00  2.8395E-03  0.0000E+00  0.0000E+00
       0.00000 -1.1936E+06  3.0000E+02 -1.4884E+04 -1.4943E+06  1.4798E+06  0.0000E+00 -2.7618E-02  0.0000E+00  0.0000E+00
         0.033  5.5682E+03  0.0000E+00  0.0000E+00  0.0000E+00  9.0000E+01  9.0000E+01  9.0000E+01  0.0000E+00  1.6717E+01

       rolling  0.0000E+00  0.0000E+00  0.0000E+00  0.0000E+00  0.0000E+00  0.0000E+00  0.0000E+00  0.0000E+00  0.0000E+00
      averages  0.0000E+00  0.0000E+00  0.0000E+00  0.0000E+00  0.0000E+00  0.0000E+00  0.0000E+00  0.0000E+00  0.0000E+00
                0.0000E+00  0.0000E+00  0.0000E+00  0.0000E+00  0.0000E+00  0.0000E+00  0.0000E+00  0.0000E+00  0.0000E+00
 ----------------------------------------------------------------------------------------------------------------------------------
 ----------------------------------------------------------------------------------------------------------------------------------

          step     eng_tot    temp_tot     eng_cfg     eng_src     eng_cou     eng_bnd     eng_ang     eng_dih     eng_tet
      time(ps)      eng_pv    temp_rot     vir_cfg     vir_src     vir_cou     vir_bnd     vir_ang     vir_con     vir_tet
      cpu  (s)      volume    temp_shl     eng_shl     vir_shl       alpha        beta       gamma     vir_pmf       press

 ----------------------------------------------------------------------------------------------------------------------------------
             1 -1.1993E+06  3.1460E+02 -1.2004E+06  2.8045E+05 -1.4809E+06  0.0000E+00  2.8278E-03  0.0000E+00  0.0000E+00
       0.00100 -1.1934E+06  3.1122E+02 -1.5336E+04 -1.4949E+06  1.4800E+06  0.0000E+00 -2.7507E-02  0.0000E+00  0.0000E+00
         0.049  5.5682E+03  0.0000E+00  0.0000E+00  0.0000E+00  9.0000E+01  9.0000E+01  9.0000E+01  0.0000E+00  1.7263E+01

       rolling -1.1993E+06  3.1460E+02 -1.2004E+06  2.8045E+05 -1.4809E+06  0.0000E+00  2.8278E-03  0.0000E+00  0.0000E+00
      averages -1.1934E+06  3.1122E+02 -1.5336E+04 -1.4949E+06  1.4800E+06  0.0000E+00 -2.7507E-02  0.0000E+00  0.0000E+00
                5.5682E+03  0.0000E+00  0.0000E+00  0.0000E+00  9.0000E+01  9.0000E+01  9.0000E+01  0.0000E+00  1.7263E+01
 ----------------------------------------------------------------------------------------------------------------------------------

 cutoff padding reset from  0.12 Angs to  0.27 Angs

           100 -1.1993E+06  6.9353E+02 -1.2018E+06  2.9363E+05 -1.4955E+06  0.0000E+00  4.4562E-03  0.0000E+00  0.0000E+00
       0.10000 -1.1787E+06  1.8994E+03 -5.6915E+04 -1.5514E+06  1.4946E+06  0.0000E+00 -4.3041E-02  0.0000E+00  0.0000E+00
         1.123  5.5682E+03  0.0000E+00  0.0000E+00  0.0000E+00  9.0000E+01  9.0000E+01  9.0000E+01  0.0000E+00  6.0695E+01

       rolling -1.1993E+06  6.8344E+02 -1.2018E+06  2.9068E+05 -1.4925E+06  0.0000E+00  3.9065E-03  0.0000E+00  0.0000E+00
      averages -1.1818E+06  9.8282E+02 -4.7538E+04 -1.5389E+06  1.4916E+06  0.0000E+00 -3.7772E-02  0.0000E+00  0.0000E+00
                5.5682E+03  0.0000E+00  0.0000E+00  0.0000E+00  9.0000E+01  9.0000E+01  9.0000E+01  0.0000E+00  5.1448E+01
 ----------------------------------------------------------------------------------------------------------------------------------
           200 -1.1993E+06  6.8501E+02 -1.2019E+06  2.8933E+05 -1.4912E+06  0.0000E+00  3.6215E-03  0.0000E+00  0.0000E+00
       0.20000 -1.1835E+06  2.7297E+03 -4.2747E+04 -1.5330E+06  1.4903E+06  0.0000E+00 -3.5075E-02  0.0000E+00  0.0000E+00
         2.211  5.5682E+03  0.0000E+00  0.0000E+00  0.0000E+00  9.0000E+01  9.0000E+01  9.0000E+01  0.0000E+00  4.6716E+01

       rolling -1.1993E+06  6.5922E+02 -1.2017E+06  2.9008E+05 -1.4918E+06  0.0000E+00  3.8118E-03  0.0000E+00  0.0000E+00
      averages -1.1826E+06  1.2976E+03 -4.5627E+04 -1.5363E+06  1.4910E+06  0.0000E+00 -3.6895E-02  0.0000E+00  0.0000E+00
                5.5682E+03  0.0000E+00  0.0000E+00  0.0000E+00  9.0000E+01  9.0000E+01  9.0000E+01  0.0000E+00  4.9393E+01
 ----------------------------------------------------------------------------------------------------------------------------------
           300 -1.1993E+06  6.3096E+02 -1.2018E+06  2.8799E+05 -1.4898E+06  0.0000E+00  3.3537E-03  0.0000E+00  0.0000E+00
       0.30000 -1.1853E+06  1.0373E+03 -3.8234E+04 -1.5269E+06  1.4889E+06  0.0000E+00 -3.2462E-02  0.0000E+00  0.0000E+00
         3.300  5.5682E+03  0.0000E+00  0.0000E+00  0.0000E+00  9.0000E+01  9.0000E+01  9.0000E+01  0.0000E+00  4.1947E+01

       rolling -1.1993E+06  6.5428E+02 -1.2018E+06  2.8980E+05 -1.4916E+06  0.0000E+00  3.8479E-03  0.0000E+00  0.0000E+00
      averages -1.1831E+06  1.3774E+03 -4.4453E+04 -1.5350E+06  1.4908E+06  0.0000E+00 -3.7209E-02  0.0000E+00  0.0000E+00
                5.5682E+03  0.0000E+00  0.0000E+00  0.0000E+00  9.0000E+01  9.0000E+01  9.0000E+01  0.0000E+00  4.8204E+01
 ----------------------------------------------------------------------------------------------------------------------------------
           400 -1.1993E+06  6.2512E+02 -1.2020E+06  2.9146E+05 -1.4935E+06  0.0000E+00  4.3263E-03  0.0000E+00  0.0000E+00
       0.40000 -1.1817E+06  1.2662E+02 -4.9671E+04 -1.5421E+06  1.4926E+06  0.0000E+00 -4.1759E-02  0.0000E+00  0.0000E+00
         4.387  5.5682E+03  0.0000E+00  0.0000E+00  0.0000E+00  9.0000E+01  9.0000E+01  9.0000E+01  0.0000E+00  5.3149E+01

       rolling -1.1993E+06  6.2826E+02 -1.2019E+06  2.9036E+05 -1.4923E+06  0.0000E+00  3.8813E-03  0.0000E+00  0.0000E+00
      averages -1.1828E+06  1.1919E+03 -4.6147E+04 -1.5374E+06  1.4914E+06  0.0000E+00 -3.7539E-02  0.0000E+00  0.0000E+00
                5.5682E+03  0.0000E+00  0.0000E+00  0.0000E+00  9.0000E+01  9.0000E+01  9.0000E+01  0.0000E+00  4.9687E+01
 ----------------------------------------------------------------------------------------------------------------------------------
           500 -1.1993E+06  5.5740E+02 -1.2020E+06  2.9200E+05 -1.4940E+06  0.0000E+00  3.6923E-03  0.0000E+00  0.0000E+00
       0.50000 -1.1814E+06  1.0305E+02 -5.1732E+04 -1.5447E+06  1.4931E+06  0.0000E+00 -3.5726E-02  0.0000E+00  0.0000E+00
         5.475  5.5682E+03  0.0000E+00  0.0000E+00  0.0000E+00  9.0000E+01  9.0000E+01  9.0000E+01  0.0000E+00  5.4692E+01

       rolling -1.1993E+06  5.9598E+02 -1.2020E+06  2.9057E+05 -1.4926E+06  0.0000E+00  3.7274E-03  0.0000E+00  0.0000E+00
      averages -1.1828E+06  1.3770E+02 -4.6981E+04 -1.5385E+06  1.4917E+06  0.0000E+00 -3.6056E-02  0.0000E+00  0.0000E+00
                5.5682E+03  0.0000E+00  0.0000E+00  0.0000E+00  9.0000E+01  9.0000E+01  9.0000E+01  0.0000E+00  5.0303E+01
 ----------------------------------------------------------------------------------------------------------------------------------
           600 -1.1993E+06  5.5959E+02 -1.2022E+06  2.9033E+05 -1.4926E+06  0.0000E+00  3.4103E-03  0.0000E+00  0.0000E+00
       0.60000 -1.1836E+06  1.8722E+02 -4.5972E+04 -1.5375E+06  1.4917E+06  0.0000E+00 -3.3032E-02  0.0000E+00  0.0000E+00
         6.557  5.5682E+03  0.0000E+00  0.0000E+00  0.0000E+00  9.0000E+01  9.0000E+01  9.0000E+01  0.0000E+00  4.9054E+01

       rolling -1.1993E+06  5.6141E+02 -1.2021E+06  2.9085E+05 -1.4930E+06  0.0000E+00  3.7072E-03  0.0000E+00  0.0000E+00
      averages -1.1828E+06  7.4686E+01 -4.7843E+04 -1.5397E+06  1.4921E+06  0.0000E+00 -3.5844E-02  0.0000E+00  0.0000E+00
                5.5682E+03  0.0000E+00  0.0000E+00  0.0000E+00  9.0000E+01  9.0000E+01  9.0000E+01  0.0000E+00  5.0906E+01
 ----------------------------------------------------------------------------------------------------------------------------------
           700 -1.1993E+06  4.8968E+02 -1.2023E+06  2.9014E+05 -1.4924E+06  0.0000E+00  3.6708E-03  0.0000E+00  0.0000E+00
       0.70000 -1.1843E+06  4.3987E+02 -4.5183E+04 -1.5366E+06  1.4915E+06  0.0000E+00 -3.5537E-02  0.0000E+00  0.0000E+00
         7.645  5.5682E+03  0.0000E+00  0.0000E+00  0.0000E+00  9.0000E+01  9.0000E+01  9.0000E+01  0.0000E+00  4.7780E+01

       rolling -1.1993E+06  5.3623E+02 -1.2023E+06  2.9096E+05 -1.4933E+06  0.0000E+00  3.4801E-03  0.0000E+00  0.0000E+00
      averages -1.1831E+06  3.1841E+02 -4.7941E+04 -1.5402E+06  1.4924E+06  0.0000E+00 -3.3654E-02  0.0000E+00  0.0000E+00
                5.5682E+03  0.0000E+00  0.0000E+00  0.0000E+00  9.0000E+01  9.0000E+01  9.0000E+01  0.0000E+00  5.0817E+01
 ----------------------------------------------------------------------------------------------------------------------------------
 ----------------------------------------------------------------------------------------------------------------------------------

          step     eng_tot    temp_tot     eng_cfg     eng_src     eng_cou     eng_bnd     eng_ang     eng_dih     eng_tet
      time(ps)      eng_pv    temp_rot     vir_cfg     vir_src     vir_cou     vir_bnd     vir_ang     vir_con     vir_tet
      cpu  (s)      volume    temp_shl     eng_shl     vir_shl       alpha        beta       gamma     vir_pmf       press

 ----------------------------------------------------------------------------------------------------------------------------------
           800 -1.1993E+06  4.8045E+02 -1.2025E+06  2.9230E+05 -1.4948E+06  0.0000E+00  3.4551E-03  0.0000E+00  0.0000E+00
       0.80000 -1.1823E+06  4.8131E+02 -5.2078E+04 -1.5460E+06  1.4939E+06  0.0000E+00 -3.3455E-02  0.0000E+00  0.0000E+00
         8.732  5.5682E+03  0.0000E+00  0.0000E+00  0.0000E+00  9.0000E+01  9.0000E+01  9.0000E+01  0.0000E+00  5.4478E+01

       rolling -1.1993E+06  4.9385E+02 -1.2024E+06  2.9097E+05 -1.4934E+06  0.0000E+00  3.4816E-03  0.0000E+00  0.0000E+00
      averages -1.1835E+06  5.0028E+02 -4.7731E+04 -1.5402E+06  1.4925E+06  0.0000E+00 -3.3670E-02  0.0000E+00  0.0000E+00
                5.5682E+03  0.0000E+00  0.0000E+00  0.0000E+00  9.0000E+01  9.0000E+01  9.0000E+01  0.0000E+00  5.0308E+01
 ----------------------------------------------------------------------------------------------------------------------------------
           900 -1.1993E+06  4.3762E+02 -1.2026E+06  2.9178E+05 -1.4944E+06  0.0000E+00  3.2754E-03  0.0000E+00  0.0000E+00
       0.90000 -1.1832E+06  3.4664E+02 -5.0260E+04 -1.5438E+06  1.4935E+06  0.0000E+00 -3.1625E-02  0.0000E+00  0.0000E+00
         9.817  5.5682E+03  0.0000E+00  0.0000E+00  0.0000E+00  9.0000E+01  9.0000E+01  9.0000E+01  0.0000E+00  5.2395E+01

       rolling -1.1993E+06  4.5090E+02 -1.2025E+06  2.9149E+05 -1.4940E+06  0.0000E+00  3.4422E-03  0.0000E+00  0.0000E+00
      averages -1.1834E+06  4.2479E+02 -4.9405E+04 -1.5425E+06  1.4932E+06  0.0000E+00 -3.3283E-02  0.0000E+00  0.0000E+00
                5.5682E+03  0.0000E+00  0.0000E+00  0.0000E+00  9.0000E+01  9.0000E+01  9.0000E+01  0.0000E+00  5.1648E+01
 ----------------------------------------------------------------------------------------------------------------------------------
          1000 -1.1993E+06  3.8480E+02 -1.2027E+06  2.9127E+05 -1.4940E+06  0.0000E+00  3.2334E-03  0.0000E+00  0.0000E+00
       1.00000 -1.1843E+06  2.7677E+02 -4.8381E+04 -1.5415E+06  1.4931E+06  0.0000E+00 -3.1236E-02  0.0000E+00  0.0000E+00
        10.899  5.5682E+03  0.0000E+00  0.0000E+00  0.0000E+00  9.0000E+01  9.0000E+01  9.0000E+01  0.0000E+00  5.0179E+01

       rolling -1.1993E+06  4.1956E+02 -1.2027E+06  2.9168E+05 -1.4944E+06  0.0000E+00  3.2315E-03  0.0000E+00  0.0000E+00
      averages -1.1835E+06  3.0617E+02 -4.9920E+04 -1.5434E+06  1.4935E+06  0.0000E+00 -3.1239E-02  0.0000E+00  0.0000E+00
                5.5682E+03  0.0000E+00  0.0000E+00  0.0000E+00  9.0000E+01  9.0000E+01  9.0000E+01  0.0000E+00  5.1935E+01
 ----------------------------------------------------------------------------------------------------------------------------------
          1100 -1.1993E+06  3.5710E+02 -1.2029E+06  2.9203E+05 -1.4949E+06  0.0000E+00  3.0122E-03  0.0000E+00  0.0000E+00
       1.10000 -1.1837E+06  2.2933E+02 -5.0893E+04 -1.5449E+06  1.4940E+06  0.0000E+00 -2.9122E-02  0.0000E+00  0.0000E+00
        11.978  5.5682E+03  0.0000E+00  0.0000E+00  0.0000E+00  9.0000E+01  9.0000E+01  9.0000E+01  0.0000E+00  5.2449E+01

       rolling -1.1993E+06  3.8427E+02 -1.2028E+06  2.9175E+05 -1.4946E+06  0.0000E+00  3.1664E-03  0.0000E+00  0.0000E+00
      averages -1.1838E+06  2.5241E+02 -5.0040E+04 -1.5437E+06  1.4937E+06  0.0000E+00 -3.0603E-02  0.0000E+00  0.0000E+00
                5.5682E+03  0.0000E+00  0.0000E+00  0.0000E+00  9.0000E+01  9.0000E+01  9.0000E+01  0.0000E+00  5.1804E+01
 ----------------------------------------------------------------------------------------------------------------------------------
          1200 -1.1993E+06  3.2563E+02 -1.2030E+06  2.9204E+05 -1.4950E+06  0.0000E+00  3.2309E-03  0.0000E+00  0.0000E+00
       1.20000 -1.1840E+06  1.7777E+02 -5.1118E+04 -1.5452E+06  1.4941E+06  0.0000E+00 -3.1231E-02  0.0000E+00  0.0000E+00
        13.061  5.5682E+03  0.0000E+00  0.0000E+00  0.0000E+00  9.0000E+01  9.0000E+01  9.0000E+01  0.0000E+00  5.2449E+01

       rolling -1.1993E+06  3.5040E+02 -1.2030E+06  2.9252E+05 -1.4955E+06  0.0000E+00  3.0349E-03  0.0000E+00  0.0000E+00
      averages -1.1833E+06  2.0952E+02 -5.2616E+04 -1.5472E+06  1.4946E+06  0.0000E+00 -2.9316E-02  0.0000E+00  0.0000E+00
                5.5682E+03  0.0000E+00  0.0000E+00  0.0000E+00  9.0000E+01  9.0000E+01  9.0000E+01  0.0000E+00  5.4093E+01
 ----------------------------------------------------------------------------------------------------------------------------------
          1300 -1.1993E+06  2.8508E+02 -1.2030E+06  2.9159E+05 -1.4946E+06  0.0000E+00  2.8539E-03  0.0000E+00  0.0000E+00
       1.30000 -1.1848E+06  4.0541E+01 -4.9628E+04 -1.5433E+06  1.4938E+06  0.0000E+00 -2.7594E-02  0.0000E+00  0.0000E+00
        14.116  5.5682E+03  0.0000E+00  0.0000E+00  0.0000E+00  9.0000E+01  9.0000E+01  9.0000E+01  0.0000E+00  5.0704E+01

       rolling -1.1993E+06  3.1769E+02 -1.2031E+06  2.9228E+05 -1.4953E+06  0.0000E+00  2.9764E-03  0.0000E+00  0.0000E+00
      averages -1.1839E+06  1.0597E+02 -5.1899E+04 -1.5463E+06  1.4945E+06  0.0000E+00 -2.8764E-02  0.0000E+00  0.0000E+00
                5.5682E+03  0.0000E+00  0.0000E+00  0.0000E+00  9.0000E+01  9.0000E+01  9.0000E+01  0.0000E+00  5.3161E+01
 ----------------------------------------------------------------------------------------------------------------------------------
          1400 -1.1993E+06  2.7179E+02 -1.2032E+06  2.9216E+05 -1.4954E+06  0.0000E+00  2.6561E-03  0.0000E+00  0.0000E+00
       1.40000 -1.1844E+06  2.0768E+01 -5.1458E+04 -1.5459E+06  1.4945E+06  0.0000E+00 -2.5688E-02  0.0000E+00  0.0000E+00
        14.755  5.5682E+03  0.0000E+00  0.0000E+00  0.0000E+00  9.0000E+01  9.0000E+01  9.0000E+01  0.0000E+00  5.2405E+01

       rolling -1.1993E+06  2.8599E+02 -1.2032E+06  2.9232E+05 -1.4955E+06  0.0000E+00  2.9416E-03  0.0000E+00  0.0000E+00
      averages -1.1841E+06  2.9144E+01 -5.1975E+04 -1.5465E+06  1.4946E+06  0.0000E+00 -2.8423E-02  0.0000E+00  0.0000E+00
                5.5682E+03  0.0000E+00  0.0000E+00  0.0000E+00  9.0000E+01  9.0000E+01  9.0000E+01  0.0000E+00  5.3013E+01
 ----------------------------------------------------------------------------------------------------------------------------------
          1500 -1.1993E+06  2.4307E+02 -1.2033E+06  2.9286E+05 -1.4961E+06  0.0000E+00  2.9640E-03  0.0000E+00  0.0000E+00
       1.50000 -1.1839E+06  3.6978E+01 -5.3687E+04 -1.5489E+06  1.4952E+06  0.0000E+00 -2.8600E-02  0.0000E+00  0.0000E+00
        15.394  5.5682E+03  0.0000E+00  0.0000E+00  0.0000E+00  9.0000E+01  9.0000E+01  9.0000E+01  0.0000E+00  5.4389E+01

       rolling -1.1993E+06  2.6074E+02 -1.2032E+06  2.9247E+05 -1.4957E+06  0.0000E+00  2.8468E-03  0.0000E+00  0.0000E+00
      averages -1.1842E+06  1.8216E+01 -5.2483E+04 -1.5473E+06  1.4948E+06  0.0000E+00 -2.7504E-02  0.0000E+00  0.0000E+00
                5.5682E+03  0.0000E+00  0.0000E+00  0.0000E+00  9.0000E+01  9.0000E+01  9.0000E+01  0.0000E+00  5.3333E+01
 ----------------------------------------------------------------------------------------------------------------------------------
 ----------------------------------------------------------------------------------------------------------------------------------

          step     eng_tot    temp_tot     eng_cfg     eng_src     eng_cou     eng_bnd     eng_ang     eng_dih     eng_tet
      time(ps)      eng_pv    temp_rot     vir_cfg     vir_src     vir_cou     vir_bnd     vir_ang     vir_con     vir_tet
      cpu  (s)      volume    temp_shl     eng_shl     vir_shl       alpha        beta       gamma     vir_pmf       press

 ----------------------------------------------------------------------------------------------------------------------------------
          1600 -1.1993E+06  2.2354E+02 -1.2034E+06  2.9173E+05 -1.4951E+06  0.0000E+00  2.7802E-03  0.0000E+00  0.0000E+00
       1.60000 -1.1854E+06  2.6233E+02 -4.9968E+04 -1.5441E+06  1.4942E+06  0.0000E+00 -2.6865E-02  0.0000E+00  0.0000E+00
        16.028  5.5682E+03  0.0000E+00  0.0000E+00  0.0000E+00  9.0000E+01  9.0000E+01  9.0000E+01  0.0000E+00  5.0597E+01

       rolling -1.1993E+06  2.3889E+02 -1.2033E+06  2.9241E+05 -1.4957E+06  0.0000E+00  2.8077E-03  0.0000E+00  0.0000E+00
      averages -1.1845E+06  1.8567E+02 -5.2278E+04 -1.5471E+06  1.4949E+06  0.0000E+00 -2.7129E-02  0.0000E+00  0.0000E+00
                5.5682E+03  0.0000E+00  0.0000E+00  0.0000E+00  9.0000E+01  9.0000E+01  9.0000E+01  0.0000E+00  5.2973E+01
 ----------------------------------------------------------------------------------------------------------------------------------
          1700 -1.1993E+06  2.1248E+02 -1.2035E+06  2.9221E+05 -1.4957E+06  0.0000E+00  2.7403E-03  0.0000E+00  0.0000E+00
       1.70000 -1.1850E+06  1.1650E+02 -5.1455E+04 -1.5462E+06  1.4948E+06  0.0000E+00 -2.6490E-02  0.0000E+00  0.0000E+00
        16.663  5.5682E+03  0.0000E+00  0.0000E+00  0.0000E+00  9.0000E+01  9.0000E+01  9.0000E+01  0.0000E+00  5.1981E+01

       rolling -1.1993E+06  2.1872E+02 -1.2034E+06  2.9239E+05 -1.4958E+06  0.0000E+00  2.7267E-03  0.0000E+00  0.0000E+00
      averages -1.1847E+06  1.7093E+02 -5.2121E+04 -1.5470E+06  1.4949E+06  0.0000E+00 -2.6345E-02  0.0000E+00  0.0000E+00
                5.5682E+03  0.0000E+00  0.0000E+00  0.0000E+00  9.0000E+01  9.0000E+01  9.0000E+01  0.0000E+00  5.2677E+01
 ----------------------------------------------------------------------------------------------------------------------------------
          1800 -1.1993E+06  1.9167E+02 -1.2035E+06  2.9327E+05 -1.4968E+06  0.0000E+00  2.6355E-03  0.0000E+00  0.0000E+00
       1.80000 -1.1840E+06  1.0899E+02 -5.4948E+04 -1.5508E+06  1.4959E+06  0.0000E+00 -2.5461E-02  0.0000E+00  0.0000E+00
        17.298  5.5682E+03  0.0000E+00  0.0000E+00  0.0000E+00  9.0000E+01  9.0000E+01  9.0000E+01  0.0000E+00  5.5260E+01

       rolling -1.1993E+06  2.0300E+02 -1.2035E+06  2.9280E+05 -1.4963E+06  0.0000E+00  2.7250E-03  0.0000E+00  0.0000E+00
      averages -1.1845E+06  1.1319E+02 -5.3403E+04 -1.5488E+06  1.4954E+06  0.0000E+00 -2.6322E-02  0.0000E+00  0.0000E+00
                5.5682E+03  0.0000E+00  0.0000E+00  0.0000E+00  9.0000E+01  9.0000E+01  9.0000E+01  0.0000E+00  5.3824E+01
 ----------------------------------------------------------------------------------------------------------------------------------
          1900 -1.1993E+06  1.8336E+02 -1.2036E+06  2.9232E+05 -1.4959E+06  0.0000E+00  2.5443E-03  0.0000E+00  0.0000E+00
       1.90000 -1.1852E+06  9.7959E+01 -5.1814E+04 -1.5468E+06  1.4950E+06  0.0000E+00 -2.4611E-02  0.0000E+00  0.0000E+00
        17.932  5.5682E+03  0.0000E+00  0.0000E+00  0.0000E+00  9.0000E+01  9.0000E+01  9.0000E+01  0.0000E+00  5.2128E+01

       rolling -1.1993E+06  1.8552E+02 -1.2035E+06  2.9263E+05 -1.4962E+06  0.0000E+00  2.6346E-03  0.0000E+00  0.0000E+00
      averages -1.1848E+06  1.0052E+02 -5.2817E+04 -1.5481E+06  1.4953E+06  0.0000E+00 -2.5451E-02  0.0000E+00  0.0000E+00
                5.5682E+03  0.0000E+00  0.0000E+00  0.0000E+00  9.0000E+01  9.0000E+01  9.0000E+01  0.0000E+00  5.3126E+01
 ----------------------------------------------------------------------------------------------------------------------------------
          2000 -1.1993E+06  1.6054E+02 -1.2036E+06  2.9209E+05 -1.4957E+06  0.0000E+00  2.5990E-03  0.0000E+00  0.0000E+00
       2.00000 -1.1856E+06  8.5986E+01 -5.1061E+04 -1.5459E+06  1.4948E+06  0.0000E+00 -2.5129E-02  0.0000E+00  0.0000E+00
        18.567  5.5682E+03  0.0000E+00  0.0000E+00  0.0000E+00  9.0000E+01  9.0000E+01  9.0000E+01  0.0000E+00  5.1228E+01

       rolling -1.1993E+06  1.7010E+02 -1.2036E+06  2.9276E+05 -1.4964E+06  0.0000E+00  2.6460E-03  0.0000E+00  0.0000E+00
      averages -1.1848E+06  9.1417E+01 -5.3244E+04 -1.5487E+06  1.4955E+06  0.0000E+00 -2.5561E-02  0.0000E+00  0.0000E+00
                5.5682E+03  0.0000E+00  0.0000E+00  0.0000E+00  9.0000E+01  9.0000E+01  9.0000E+01  0.0000E+00  5.3437E+01
 ----------------------------------------------------------------------------------------------------------------------------------
          2100 -1.1993E+06  1.5387E+02 -1.2037E+06  2.9308E+05 -1.4967E+06  0.0000E+00  2.6699E-03  0.0000E+00  0.0000E+00
       2.10000 -1.1846E+06  9.7440E+01 -5.4312E+04 -1.5501E+06  1.4959E+06  0.0000E+00 -2.5795E-02  0.0000E+00  0.0000E+00
        19.210  5.5682E+03  0.0000E+00  0.0000E+00  0.0000E+00  9.0000E+01  9.0000E+01  9.0000E+01  0.0000E+00  5.4369E+01

       rolling -1.1993E+06  1.5831E+02 -1.2036E+06  2.9251E+05 -1.4962E+06  0.0000E+00  2.6042E-03  0.0000E+00  0.0000E+00
      averages -1.1852E+06  8.7940E+01 -5.2438E+04 -1.5477E+06  1.4953E+06  0.0000E+00 -2.5164E-02  0.0000E+00  0.0000E+00
                5.5682E+03  0.0000E+00  0.0000E+00  0.0000E+00  9.0000E+01  9.0000E+01  9.0000E+01  0.0000E+00  5.2563E+01
 ----------------------------------------------------------------------------------------------------------------------------------
          2200 -1.1993E+06  1.4917E+02 -1.2037E+06  2.9219E+05 -1.4959E+06  0.0000E+00  2.4514E-03  0.0000E+00  0.0000E+00
       2.20000 -1.1857E+06  1.4363E+02 -5.1401E+04 -1.5464E+06  1.4950E+06  0.0000E+00 -2.3681E-02  0.0000E+00  0.0000E+00
        19.845  5.5682E+03  0.0000E+00  0.0000E+00  0.0000E+00  9.0000E+01  9.0000E+01  9.0000E+01  0.0000E+00  5.1479E+01

       rolling -1.1993E+06  1.4548E+02 -1.2037E+06  2.9242E+05 -1.4961E+06  0.0000E+00  2.5885E-03  0.0000E+00  0.0000E+00
      averages -1.1854E+06  1.1789E+02 -5.2172E+04 -1.5474E+06  1.4952E+06  0.0000E+00 -2.5014E-02  0.0000E+00  0.0000E+00
                5.5682E+03  0.0000E+00  0.0000E+00  0.0000E+00  9.0000E+01  9.0000E+01  9.0000E+01  0.0000E+00  5.2210E+01
 ----------------------------------------------------------------------------------------------------------------------------------
          2300 -1.1993E+06  1.2917E+02 -1.2037E+06  2.9167E+05 -1.4954E+06  0.0000E+00  2.5527E-03  0.0000E+00  0.0000E+00
       2.30000 -1.1864E+06  1.8836E+02 -4.9665E+04 -1.5442E+06  1.4945E+06  0.0000E+00 -2.4677E-02  0.0000E+00  0.0000E+00
        20.482  5.5682E+03  0.0000E+00  0.0000E+00  0.0000E+00  9.0000E+01  9.0000E+01  9.0000E+01  0.0000E+00  4.9633E+01

       rolling -1.1993E+06  1.3710E+02 -1.2037E+06  2.9251E+05 -1.4962E+06  0.0000E+00  2.5713E-03  0.0000E+00  0.0000E+00
      averages -1.1854E+06  1.7571E+02 -5.2440E+04 -1.5478E+06  1.4953E+06  0.0000E+00 -2.4842E-02  0.0000E+00  0.0000E+00
                5.5682E+03  0.0000E+00  0.0000E+00  0.0000E+00  9.0000E+01  9.0000E+01  9.0000E+01  0.0000E+00  5.2413E+01
 ----------------------------------------------------------------------------------------------------------------------------------
 ----------------------------------------------------------------------------------------------------------------------------------

          step     eng_tot    temp_tot     eng_cfg     eng_src     eng_cou     eng_bnd     eng_ang     eng_dih     eng_tet
      time(ps)      eng_pv    temp_rot     vir_cfg     vir_src     vir_cou     vir_bnd     vir_ang     vir_con     vir_tet
      cpu  (s)      volume    temp_shl     eng_shl     vir_shl       alpha        beta       gamma     vir_pmf       press

 ----------------------------------------------------------------------------------------------------------------------------------
          2400 -1.1993E+06  1.2394E+02 -1.2038E+06  2.9234E+05 -1.4961E+06  0.0000E+00  2.4721E-03  0.0000E+00  0.0000E+00
       2.40000 -1.1857E+06  1.2201E+02 -5.1820E+04 -1.5470E+06  1.4952E+06  0.0000E+00 -2.3906E-02  0.0000E+00  0.0000E+00
        21.118  5.5682E+03  0.0000E+00  0.0000E+00  0.0000E+00  9.0000E+01  9.0000E+01  9.0000E+01  0.0000E+00  5.1712E+01

       rolling -1.1993E+06  1.3013E+02 -1.2037E+06  2.9245E+05 -1.4962E+06  0.0000E+00  2.5369E-03  0.0000E+00  0.0000E+00
      averages -1.1856E+06  1.6825E+02 -5.2216E+04 -1.5475E+06  1.4953E+06  0.0000E+00 -2.4516E-02  0.0000E+00  0.0000E+00
                5.5682E+03  0.0000E+00  0.0000E+00  0.0000E+00  9.0000E+01  9.0000E+01  9.0000E+01  0.0000E+00  5.2143E+01
 ----------------------------------------------------------------------------------------------------------------------------------
          2500 -1.1993E+06  1.1624E+02 -1.2038E+06  2.9249E+05 -1.4963E+06  0.0000E+00  2.4313E-03  0.0000E+00  0.0000E+00
       2.50000 -1.1856E+06  1.6724E+01 -5.2332E+04 -1.5477E+06  1.4954E+06  0.0000E+00 -2.3504E-02  0.0000E+00  0.0000E+00
        21.751  5.5682E+03  0.0000E+00  0.0000E+00  0.0000E+00  9.0000E+01  9.0000E+01  9.0000E+01  0.0000E+00  5.2163E+01

       rolling -1.1993E+06  1.2061E+02 -1.2038E+06  2.9253E+05 -1.4963E+06  0.0000E+00  2.5328E-03  0.0000E+00  0.0000E+00
      averages -1.1855E+06  4.9738E+01 -5.2489E+04 -1.5479E+06  1.4954E+06  0.0000E+00 -2.4472E-02  0.0000E+00  0.0000E+00
                5.5682E+03  0.0000E+00  0.0000E+00  0.0000E+00  9.0000E+01  9.0000E+01  9.0000E+01  0.0000E+00  5.2347E+01
 ----------------------------------------------------------------------------------------------------------------------------------
          2600 -1.1993E+06  1.1277E+02 -1.2038E+06  2.9210E+05 -1.4959E+06  0.0000E+00  2.3834E-03  0.0000E+00  0.0000E+00
       2.60000 -1.1861E+06  4.4003E+01 -5.1024E+04 -1.5460E+06  1.4950E+06  0.0000E+00 -2.3039E-02  0.0000E+00  0.0000E+00
        22.387  5.5682E+03  0.0000E+00  0.0000E+00  0.0000E+00  9.0000E+01  9.0000E+01  9.0000E+01  0.0000E+00  5.0855E+01

       rolling -1.1993E+06  1.1519E+02 -1.2038E+06  2.9257E+05 -1.4964E+06  0.0000E+00  2.5128E-03  0.0000E+00  0.0000E+00
      averages -1.1856E+06  2.9159E+01 -5.2583E+04 -1.5480E+06  1.4955E+06  0.0000E+00 -2.4278E-02  0.0000E+00  0.0000E+00
                5.5682E+03  0.0000E+00  0.0000E+00  0.0000E+00  9.0000E+01  9.0000E+01  9.0000E+01  0.0000E+00  5.2401E+01
 ----------------------------------------------------------------------------------------------------------------------------------
          2700 -1.1993E+06  1.1096E+02 -1.2038E+06  2.9239E+05 -1.4962E+06  0.0000E+00  2.5397E-03  0.0000E+00  0.0000E+00
       2.70000 -1.1858E+06  6.6052E+01 -5.1993E+04 -1.5473E+06  1.4953E+06  0.0000E+00 -2.4536E-02  0.0000E+00  0.0000E+00
        23.018  5.5682E+03  0.0000E+00  0.0000E+00  0.0000E+00  9.0000E+01  9.0000E+01  9.0000E+01  0.0000E+00  5.1792E+01

       rolling -1.1993E+06  1.1204E+02 -1.2038E+06  2.9255E+05 -1.4964E+06  0.0000E+00  2.4707E-03  0.0000E+00  0.0000E+00
      averages -1.1856E+06  5.6880E+01 -5.2490E+04 -1.5480E+06  1.4955E+06  0.0000E+00 -2.3874E-02  0.0000E+00  0.0000E+00
                5.5682E+03  0.0000E+00  0.0000E+00  0.0000E+00  9.0000E+01  9.0000E+01  9.0000E+01  0.0000E+00  5.2287E+01
 ----------------------------------------------------------------------------------------------------------------------------------
          2800 -1.1993E+06  1.0052E+02 -1.2038E+06  2.9291E+05 -1.4967E+06  0.0000E+00  2.4564E-03  0.0000E+00  0.0000E+00
       2.80000 -1.1853E+06  7.0994E+01 -5.3698E+04 -1.5495E+06  1.4958E+06  0.0000E+00 -2.3721E-02  0.0000E+00  0.0000E+00
        23.651  5.5682E+03  0.0000E+00  0.0000E+00  0.0000E+00  9.0000E+01  9.0000E+01  9.0000E+01  0.0000E+00  5.3390E+01

       rolling -1.1993E+06  1.0644E+02 -1.2038E+06  2.9283E+05 -1.4966E+06  0.0000E+00  2.4934E-03  0.0000E+00  0.0000E+00
      averages -1.1854E+06  7.1409E+01 -5.3415E+04 -1.5492E+06  1.4958E+06  0.0000E+00 -2.4085E-02  0.0000E+00  0.0000E+00
                5.5682E+03  0.0000E+00  0.0000E+00  0.0000E+00  9.0000E+01  9.0000E+01  9.0000E+01  0.0000E+00  5.3155E+01
 ----------------------------------------------------------------------------------------------------------------------------------
          2900 -1.1993E+06  1.0254E+02 -1.2038E+06  2.9305E+05 -1.4969E+06  0.0000E+00  2.4495E-03  0.0000E+00  0.0000E+00
       2.90000 -1.1852E+06  4.9359E+01 -5.4098E+04 -1.5501E+06  1.4960E+06  0.0000E+00 -2.3663E-02  0.0000E+00  0.0000E+00
        24.285  5.5682E+03  0.0000E+00  0.0000E+00  0.0000E+00  9.0000E+01  9.0000E+01  9.0000E+01  0.0000E+00  5.3797E+01

       rolling -1.1993E+06  1.0446E+02 -1.2038E+06  2.9290E+05 -1.4967E+06  0.0000E+00  2.4381E-03  0.0000E+00  0.0000E+00
      averages -1.1853E+06  5.9272E+01 -5.3653E+04 -1.5495E+06  1.4959E+06  0.0000E+00 -2.3553E-02  0.0000E+00  0.0000E+00
                5.5682E+03  0.0000E+00  0.0000E+00  0.0000E+00  9.0000E+01  9.0000E+01  9.0000E+01  0.0000E+00  5.3374E+01
 ----------------------------------------------------------------------------------------------------------------------------------
          3000 -1.1993E+06  1.0209E+02 -1.2039E+06  2.9308E+05 -1.4969E+06  0.0000E+00  2.4312E-03  0.0000E+00  0.0000E+00
       3.00000 -1.1851E+06  4.7551E+01 -5.4272E+04 -1.5503E+06  1.4960E+06  0.0000E+00 -2.3475E-02  0.0000E+00  0.0000E+00
        24.917  5.5682E+03  0.0000E+00  0.0000E+00  0.0000E+00  9.0000E+01  9.0000E+01  9.0000E+01  0.0000E+00  5.3965E+01

       rolling -1.1993E+06  1.0191E+02 -1.2038E+06  2.9320E+05 -1.4970E+06  0.0000E+00  2.4223E-03  0.0000E+00  0.0000E+00
      averages -1.1850E+06  4.5241E+01 -5.4634E+04 -1.5508E+06  1.4962E+06  0.0000E+00 -2.3394E-02  0.0000E+00  0.0000E+00
                5.5682E+03  0.0000E+00  0.0000E+00  0.0000E+00  9.0000E+01  9.0000E+01  9.0000E+01  0.0000E+00  5.4319E+01
 ----------------------------------------------------------------------------------------------------------------------------------
          3100 -1.1993E+06  1.0133E+02 -1.2039E+06  2.9345E+05 -1.4973E+06  0.0000E+00  2.3173E-03  0.0000E+00  0.0000E+00
       3.10000 -1.1848E+06  5.9948E+01 -5.5502E+04 -1.5519E+06  1.4964E+06  0.0000E+00 -2.2392E-02  0.0000E+00  0.0000E+00
        25.553  5.5682E+03  0.0000E+00  0.0000E+00  0.0000E+00  9.0000E+01  9.0000E+01  9.0000E+01  0.0000E+00  5.5166E+01

       rolling -1.1993E+06  9.8973E+01 -1.2038E+06  2.9337E+05 -1.4972E+06  0.0000E+00  2.4443E-03  0.0000E+00  0.0000E+00
      averages -1.1849E+06  5.5840E+01 -5.5194E+04 -1.5515E+06  1.4963E+06  0.0000E+00 -2.3601E-02  0.0000E+00  0.0000E+00
                5.5682E+03  0.0000E+00  0.0000E+00  0.0000E+00  9.0000E+01  9.0000E+01  9.0000E+01  0.0000E+00  5.4848E+01
 ----------------------------------------------------------------------------------------------------------------------------------
 ----------------------------------------------------------------------------------------------------------------------------------

          step     eng_tot    temp_tot     eng_cfg     eng_src     eng_cou     eng_bnd     eng_ang     eng_dih     eng_tet
      time(ps)      eng_pv    temp_rot     vir_cfg     vir_src     vir_cou     vir_bnd     vir_ang     vir_con     vir_tet
      cpu  (s)      volume    temp_shl     eng_shl     vir_shl       alpha        beta       gamma     vir_pmf       press

 ----------------------------------------------------------------------------------------------------------------------------------
          3200 -1.1993E+06  9.6754E+01 -1.2038E+06  2.9330E+05 -1.4971E+06  0.0000E+00  2.5574E-03  0.0000E+00  0.0000E+00
       3.20000 -1.1849E+06  5.0068E+01 -5.4961E+04 -1.5512E+06  1.4963E+06  0.0000E+00 -2.4687E-02  0.0000E+00  0.0000E+00
        26.184  5.5682E+03  0.0000E+00  0.0000E+00  0.0000E+00  9.0000E+01  9.0000E+01  9.0000E+01  0.0000E+00  5.4603E+01

       rolling -1.1993E+06  9.8739E+01 -1.2039E+06  2.9317E+05 -1.4970E+06  0.0000E+00  2.4465E-03  0.0000E+00  0.0000E+00
      averages -1.1851E+06  5.5410E+01 -5.4529E+04 -1.5507E+06  1.4961E+06  0.0000E+00 -2.3627E-02  0.0000E+00  0.0000E+00
                5.5682E+03  0.0000E+00  0.0000E+00  0.0000E+00  9.0000E+01  9.0000E+01  9.0000E+01  0.0000E+00  5.4194E+01
 ----------------------------------------------------------------------------------------------------------------------------------
          3300 -1.1993E+06  9.8046E+01 -1.2039E+06  2.9325E+05 -1.4971E+06  0.0000E+00  2.5139E-03  0.0000E+00  0.0000E+00
       3.30000 -1.1850E+06  4.5630E+01 -5.4756E+04 -1.5510E+06  1.4962E+06  0.0000E+00 -2.4265E-02  0.0000E+00  0.0000E+00
        26.812  5.5682E+03  0.0000E+00  0.0000E+00  0.0000E+00  9.0000E+01  9.0000E+01  9.0000E+01  0.0000E+00  5.4412E+01

       rolling -1.1993E+06  9.7344E+01 -1.2039E+06  2.9297E+05 -1.4968E+06  0.0000E+00  2.4187E-03  0.0000E+00  0.0000E+00
      averages -1.1853E+06  4.6290E+01 -5.3893E+04 -1.5498E+06  1.4959E+06  0.0000E+00 -2.3363E-02  0.0000E+00  0.0000E+00
                5.5682E+03  0.0000E+00  0.0000E+00  0.0000E+00  9.0000E+01  9.0000E+01  9.0000E+01  0.0000E+00  5.3560E+01
 ----------------------------------------------------------------------------------------------------------------------------------
          3400 -1.1993E+06  9.6835E+01 -1.2038E+06  2.9314E+05 -1.4970E+06  0.0000E+00  2.4654E-03  0.0000E+00  0.0000E+00
       3.40000 -1.1851E+06  5.4954E+01 -5.4419E+04 -1.5505E+06  1.4961E+06  0.0000E+00 -2.3800E-02  0.0000E+00  0.0000E+00
        27.441  5.5682E+03  0.0000E+00  0.0000E+00  0.0000E+00  9.0000E+01  9.0000E+01  9.0000E+01  0.0000E+00  5.4072E+01

       rolling -1.1993E+06  9.8526E+01 -1.2039E+06  2.9320E+05 -1.4971E+06  0.0000E+00  2.4548E-03  0.0000E+00  0.0000E+00
      averages -1.1851E+06  4.9386E+01 -5.4615E+04 -1.5508E+06  1.4962E+06  0.0000E+00 -2.3705E-02  0.0000E+00  0.0000E+00
                5.5682E+03  0.0000E+00  0.0000E+00  0.0000E+00  9.0000E+01  9.0000E+01  9.0000E+01  0.0000E+00  5.4277E+01
 ----------------------------------------------------------------------------------------------------------------------------------
          3500 -1.1993E+06  9.7414E+01 -1.2038E+06  2.9318E+05 -1.4970E+06  0.0000E+00  2.5006E-03  0.0000E+00  0.0000E+00
       3.50000 -1.1851E+06  7.8542E+01 -5.4534E+04 -1.5507E+06  1.4961E+06  0.0000E+00 -2.4135E-02  0.0000E+00  0.0000E+00
        28.071  5.5682E+03  0.0000E+00  0.0000E+00  0.0000E+00  9.0000E+01  9.0000E+01  9.0000E+01  0.0000E+00  5.4188E+01

       rolling -1.1993E+06  9.9587E+01 -1.2039E+06  2.9313E+05 -1.4970E+06  0.0000E+00  2.4316E-03  0.0000E+00  0.0000E+00
      averages -1.1851E+06  6.6949E+01 -5.4387E+04 -1.5505E+06  1.4961E+06  0.0000E+00 -2.3482E-02  0.0000E+00  0.0000E+00
                5.5682E+03  0.0000E+00  0.0000E+00  0.0000E+00  9.0000E+01  9.0000E+01  9.0000E+01  0.0000E+00  5.4060E+01
 ----------------------------------------------------------------------------------------------------------------------------------
          3600 -1.1993E+06  1.0297E+02 -1.2038E+06  2.9280E+05 -1.4966E+06  0.0000E+00  2.3948E-03  0.0000E+00  0.0000E+00
       3.60000 -1.1855E+06  9.3419E+01 -5.3309E+04 -1.5491E+06  1.4958E+06  0.0000E+00 -2.3145E-02  0.0000E+00  0.0000E+00
        28.980  5.5682E+03  0.0000E+00  0.0000E+00  0.0000E+00  9.0000E+01  9.0000E+01  9.0000E+01  0.0000E+00  5.3025E+01

       rolling -1.1993E+06  1.0046E+02 -1.2038E+06  2.9304E+05 -1.4969E+06  0.0000E+00  2.4499E-03  0.0000E+00  0.0000E+00
      averages -1.1852E+06  8.6643E+01 -5.4110E+04 -1.5501E+06  1.4960E+06  0.0000E+00 -2.3664E-02  0.0000E+00  0.0000E+00
                5.5682E+03  0.0000E+00  0.0000E+00  0.0000E+00  9.0000E+01  9.0000E+01  9.0000E+01  0.0000E+00  5.3794E+01
 ----------------------------------------------------------------------------------------------------------------------------------
          3700 -1.1993E+06  1.0449E+02 -1.2038E+06  2.9252E+05 -1.4963E+06  0.0000E+00  2.3992E-03  0.0000E+00  0.0000E+00
       3.70000 -1.1857E+06  8.8306E+01 -5.2457E+04 -1.5479E+06  1.4955E+06  0.0000E+00 -2.3194E-02  0.0000E+00  0.0000E+00
        30.049  5.5682E+03  0.0000E+00  0.0000E+00  0.0000E+00  9.0000E+01  9.0000E+01  9.0000E+01  0.0000E+00  5.2201E+01

       rolling -1.1993E+06  1.0300E+02 -1.2038E+06  2.9285E+05 -1.4967E+06  0.0000E+00  2.4715E-03  0.0000E+00  0.0000E+00
      averages -1.1854E+06  9.1563E+01 -5.3477E+04 -1.5493E+06  1.4958E+06  0.0000E+00 -2.3872E-02  0.0000E+00  0.0000E+00
                5.5682E+03  0.0000E+00  0.0000E+00  0.0000E+00  9.0000E+01  9.0000E+01  9.0000E+01  0.0000E+00  5.3191E+01
 ----------------------------------------------------------------------------------------------------------------------------------
          3800 -1.1993E+06  1.1101E+02 -1.2038E+06  2.9284E+05 -1.4967E+06  0.0000E+00  2.5933E-03  0.0000E+00  0.0000E+00
       3.80000 -1.1853E+06  7.2360E+01 -5.3487E+04 -1.5493E+06  1.4958E+06  0.0000E+00 -2.5036E-02  0.0000E+00  0.0000E+00
        31.122  5.5682E+03  0.0000E+00  0.0000E+00  0.0000E+00  9.0000E+01  9.0000E+01  9.0000E+01  0.0000E+00  5.3258E+01

       rolling -1.1993E+06  1.0559E+02 -1.2038E+06  2.9259E+05 -1.4964E+06  0.0000E+00  2.4768E-03  0.0000E+00  0.0000E+00
      averages -1.1856E+06  8.1306E+01 -5.2657E+04 -1.5482E+06  1.4955E+06  0.0000E+00 -2.3932E-02  0.0000E+00  0.0000E+00
                5.5682E+03  0.0000E+00  0.0000E+00  0.0000E+00  9.0000E+01  9.0000E+01  9.0000E+01  0.0000E+00  5.2405E+01
 ----------------------------------------------------------------------------------------------------------------------------------
          3900 -1.1993E+06  1.1829E+02 -1.2038E+06  2.9315E+05 -1.4970E+06  0.0000E+00  2.4791E-03  0.0000E+00  0.0000E+00
       3.90000 -1.1849E+06  5.3795E+01 -5.4556E+04 -1.5506E+06  1.4961E+06  0.0000E+00 -2.3949E-02  0.0000E+00  0.0000E+00
        32.194  5.5682E+03  0.0000E+00  0.0000E+00  0.0000E+00  9.0000E+01  9.0000E+01  9.0000E+01  0.0000E+00  5.4358E+01

       rolling -1.1993E+06  1.0985E+02 -1.2038E+06  2.9265E+05 -1.4965E+06  0.0000E+00  2.4684E-03  0.0000E+00  0.0000E+00
      averages -1.1855E+06  5.7535E+01 -5.2886E+04 -1.5485E+06  1.4956E+06  0.0000E+00 -2.3850E-02  0.0000E+00  0.0000E+00
                5.5682E+03  0.0000E+00  0.0000E+00  0.0000E+00  9.0000E+01  9.0000E+01  9.0000E+01  0.0000E+00  5.2660E+01
 ----------------------------------------------------------------------------------------------------------------------------------
 ----------------------------------------------------------------------------------------------------------------------------------

          step     eng_tot    temp_tot     eng_cfg     eng_src     eng_cou     eng_bnd     eng_ang     eng_dih     eng_tet
      time(ps)      eng_pv    temp_rot     vir_cfg     vir_src     vir_cou     vir_bnd     vir_ang     vir_con     vir_tet
      cpu  (s)      volume    temp_shl     eng_shl     vir_shl       alpha        beta       gamma     vir_pmf       press

 ----------------------------------------------------------------------------------------------------------------------------------
          4000 -1.1993E+06  1.2416E+02 -1.2038E+06  2.9285E+05 -1.4967E+06  0.0000E+00  2.5207E-03  0.0000E+00  0.0000E+00
       4.00000 -1.1852E+06  8.1898E+01 -5.3519E+04 -1.5493E+06  1.4958E+06  0.0000E+00 -2.4353E-02  0.0000E+00  0.0000E+00
        33.030  5.5682E+03  0.0000E+00  0.0000E+00  0.0000E+00  9.0000E+01  9.0000E+01  9.0000E+01  0.0000E+00  5.3382E+01

       rolling -1.1993E+06  1.1451E+02 -1.2038E+06  2.9280E+05 -1.4966E+06  0.0000E+00  2.5484E-03  0.0000E+00  0.0000E+00
      averages -1.1853E+06  6.6279E+01 -5.3380E+04 -1.5491E+06  1.4957E+06  0.0000E+00 -2.4616E-02  0.0000E+00  0.0000E+00
                5.5682E+03  0.0000E+00  0.0000E+00  0.0000E+00  9.0000E+01  9.0000E+01  9.0000E+01  0.0000E+00  5.3178E+01
 ----------------------------------------------------------------------------------------------------------------------------------
          4100 -1.1993E+06  1.3046E+02 -1.2038E+06  2.9281E+05 -1.4966E+06  0.0000E+00  2.7402E-03  0.0000E+00  0.0000E+00
       4.10000 -1.1852E+06  1.1462E+02 -5.3360E+04 -1.5491E+06  1.4957E+06  0.0000E+00 -2.6465E-02  0.0000E+00  0.0000E+00
        33.670  5.5682E+03  0.0000E+00  0.0000E+00  0.0000E+00  9.0000E+01  9.0000E+01  9.0000E+01  0.0000E+00  5.3270E+01

       rolling -1.1993E+06  1.2014E+02 -1.2038E+06  2.9255E+05 -1.4963E+06  0.0000E+00  2.5029E-03  0.0000E+00  0.0000E+00
      averages -1.1855E+06  9.6235E+01 -5.2544E+04 -1.5480E+06  1.4954E+06  0.0000E+00 -2.4185E-02  0.0000E+00  0.0000E+00
                5.5682E+03  0.0000E+00  0.0000E+00  0.0000E+00  9.0000E+01  9.0000E+01  9.0000E+01  0.0000E+00  5.2397E+01
 ----------------------------------------------------------------------------------------------------------------------------------
          4200 -1.1993E+06  1.2641E+02 -1.2037E+06  2.9246E+05 -1.4962E+06  0.0000E+00  2.4120E-03  0.0000E+00  0.0000E+00
       4.20000 -1.1856E+06  1.3694E+02 -5.2233E+04 -1.5475E+06  1.4953E+06  0.0000E+00 -2.3319E-02  0.0000E+00  0.0000E+00
        34.307  5.5682E+03  0.0000E+00  0.0000E+00  0.0000E+00  9.0000E+01  9.0000E+01  9.0000E+01  0.0000E+00  5.2135E+01

       rolling -1.1993E+06  1.2677E+02 -1.2037E+06  2.9242E+05 -1.4962E+06  0.0000E+00  2.5285E-03  0.0000E+00  0.0000E+00
      averages -1.1856E+06  1.2633E+02 -5.2128E+04 -1.5474E+06  1.4953E+06  0.0000E+00 -2.4431E-02  0.0000E+00  0.0000E+00
                5.5682E+03  0.0000E+00  0.0000E+00  0.0000E+00  9.0000E+01  9.0000E+01  9.0000E+01  0.0000E+00  5.2034E+01
 ----------------------------------------------------------------------------------------------------------------------------------
          4300 -1.1993E+06  1.4525E+02 -1.2037E+06  2.9266E+05 -1.4964E+06  0.0000E+00  2.5737E-03  0.0000E+00  0.0000E+00
       4.30000 -1.1852E+06  1.5479E+02 -5.2933E+04 -1.5484E+06  1.4955E+06  0.0000E+00 -2.4883E-02  0.0000E+00  0.0000E+00
        34.945  5.5682E+03  0.0000E+00  0.0000E+00  0.0000E+00  9.0000E+01  9.0000E+01  9.0000E+01  0.0000E+00  5.2955E+01

       rolling -1.1993E+06  1.3550E+02 -1.2037E+06  2.9244E+05 -1.4962E+06  0.0000E+00  2.5593E-03  0.0000E+00  0.0000E+00
      averages -1.1855E+06  1.4500E+02 -5.2184E+04 -1.5475E+06  1.4953E+06  0.0000E+00 -2.4732E-02  0.0000E+00  0.0000E+00
                5.5682E+03  0.0000E+00  0.0000E+00  0.0000E+00  9.0000E+01  9.0000E+01  9.0000E+01  0.0000E+00  5.2150E+01
 ----------------------------------------------------------------------------------------------------------------------------------
          4400 -1.1993E+06  1.6105E+02 -1.2037E+06  2.9236E+05 -1.4961E+06  0.0000E+00  2.7105E-03  0.0000E+00  0.0000E+00
       4.40000 -1.1855E+06  1.8798E+02 -5.1828E+04 -1.5470E+06  1.4952E+06  0.0000E+00 -2.6167E-02  0.0000E+00  0.0000E+00
        35.582  5.5682E+03  0.0000E+00  0.0000E+00  0.0000E+00  9.0000E+01  9.0000E+01  9.0000E+01  0.0000E+00  5.1981E+01

       rolling -1.1993E+06  1.4487E+02 -1.2037E+06  2.9242E+05 -1.4961E+06  0.0000E+00  2.6058E-03  0.0000E+00  0.0000E+00
      averages -1.1855E+06  1.7651E+02 -5.2096E+04 -1.5473E+06  1.4952E+06  0.0000E+00 -2.5182E-02  0.0000E+00  0.0000E+00
                5.5682E+03  0.0000E+00  0.0000E+00  0.0000E+00  9.0000E+01  9.0000E+01  9.0000E+01  0.0000E+00  5.2130E+01
 ----------------------------------------------------------------------------------------------------------------------------------
          4500 -1.1993E+06  1.6187E+02 -1.2036E+06  2.9220E+05 -1.4958E+06  0.0000E+00  2.5943E-03  0.0000E+00  0.0000E+00
       4.50000 -1.1855E+06  1.2600E+02 -5.1425E+04 -1.5464E+06  1.4950E+06  0.0000E+00 -2.5065E-02  0.0000E+00  0.0000E+00
        36.219  5.5682E+03  0.0000E+00  0.0000E+00  0.0000E+00  9.0000E+01  9.0000E+01  9.0000E+01  0.0000E+00  5.1593E+01

       rolling -1.1993E+06  1.5529E+02 -1.2037E+06  2.9237E+05 -1.4960E+06  0.0000E+00  2.6149E-03  0.0000E+00  0.0000E+00
      averages -1.1854E+06  1.7630E+02 -5.1944E+04 -1.5471E+06  1.4951E+06  0.0000E+00 -2.5267E-02  0.0000E+00  0.0000E+00
                5.5682E+03  0.0000E+00  0.0000E+00  0.0000E+00  9.0000E+01  9.0000E+01  9.0000E+01  0.0000E+00  5.2054E+01
 ----------------------------------------------------------------------------------------------------------------------------------
          4600 -1.1993E+06  1.8345E+02 -1.2036E+06  2.9250E+05 -1.4961E+06  0.0000E+00  2.5096E-03  0.0000E+00  0.0000E+00
       4.60000 -1.1850E+06  6.9579E+01 -5.2426E+04 -1.5477E+06  1.4952E+06  0.0000E+00 -2.4244E-02  0.0000E+00  0.0000E+00
        36.854  5.5682E+03  0.0000E+00  0.0000E+00  0.0000E+00  9.0000E+01  9.0000E+01  9.0000E+01  0.0000E+00  5.2729E+01

       rolling -1.1993E+06  1.6548E+02 -1.2036E+06  2.9241E+05 -1.4960E+06  0.0000E+00  2.6479E-03  0.0000E+00  0.0000E+00
      averages -1.1852E+06  7.5227E+01 -5.2127E+04 -1.5472E+06  1.4951E+06  0.0000E+00 -2.5591E-02  0.0000E+00  0.0000E+00
                5.5682E+03  0.0000E+00  0.0000E+00  0.0000E+00  9.0000E+01  9.0000E+01  9.0000E+01  0.0000E+00  5.2308E+01
 ----------------------------------------------------------------------------------------------------------------------------------
          4700 -1.1993E+06  1.8500E+02 -1.2035E+06  2.9201E+05 -1.4955E+06  0.0000E+00  2.8099E-03  0.0000E+00  0.0000E+00
       4.70000 -1.1855E+06  1.5104E+02 -5.0809E+04 -1.5455E+06  1.4947E+06  0.0000E+00 -2.7153E-02  0.0000E+00  0.0000E+00
        37.488  5.5682E+03  0.0000E+00  0.0000E+00  0.0000E+00  9.0000E+01  9.0000E+01  9.0000E+01  0.0000E+00  5.1151E+01

       rolling -1.1993E+06  1.8265E+02 -1.2036E+06  2.9250E+05 -1.4961E+06  0.0000E+00  2.6613E-03  0.0000E+00  0.0000E+00
      averages -1.1850E+06  1.1144E+02 -5.2399E+04 -1.5476E+06  1.4952E+06  0.0000E+00 -2.5713E-02  0.0000E+00  0.0000E+00
                5.5682E+03  0.0000E+00  0.0000E+00  0.0000E+00  9.0000E+01  9.0000E+01  9.0000E+01  0.0000E+00  5.2695E+01
 ----------------------------------------------------------------------------------------------------------------------------------
 ----------------------------------------------------------------------------------------------------------------------------------

          step     eng_tot    temp_tot     eng_cfg     eng_src     eng_cou     eng_bnd     eng_ang     eng_dih     eng_tet
      time(ps)      eng_pv    temp_rot     vir_cfg     vir_src     vir_cou     vir_bnd     vir_ang     vir_con     vir_tet
      cpu  (s)      volume    temp_shl     eng_shl     vir_shl       alpha        beta       gamma     vir_pmf       press

 ----------------------------------------------------------------------------------------------------------------------------------
          4800 -1.1993E+06  2.0786E+02 -1.2035E+06  2.9168E+05 -1.4952E+06  0.0000E+00  2.3601E-03  0.0000E+00  0.0000E+00
       4.80000 -1.1857E+06  2.2659E+02 -4.9694E+04 -1.5440E+06  1.4943E+06  0.0000E+00 -2.2812E-02  0.0000E+00  0.0000E+00
        38.123  5.5682E+03  0.0000E+00  0.0000E+00  0.0000E+00  9.0000E+01  9.0000E+01  9.0000E+01  0.0000E+00  5.0218E+01

       rolling -1.1993E+06  1.9600E+02 -1.2035E+06  2.9231E+05 -1.4958E+06  0.0000E+00  2.7164E-03  0.0000E+00  0.0000E+00
      averages -1.1851E+06  1.8847E+02 -5.1791E+04 -1.5467E+06  1.4949E+06  0.0000E+00 -2.6248E-02  0.0000E+00  0.0000E+00
                5.5682E+03  0.0000E+00  0.0000E+00  0.0000E+00  9.0000E+01  9.0000E+01  9.0000E+01  0.0000E+00  5.2192E+01
 ----------------------------------------------------------------------------------------------------------------------------------
          4900 -1.1993E+06  2.2649E+02 -1.2034E+06  2.9344E+05 -1.4968E+06  0.0000E+00  2.8980E-03  0.0000E+00  0.0000E+00
       4.90000 -1.1835E+06  2.2868E+02 -5.5570E+04 -1.5515E+06  1.4960E+06  0.0000E+00 -2.8001E-02  0.0000E+00  0.0000E+00
        38.756  5.5682E+03  0.0000E+00  0.0000E+00  0.0000E+00  9.0000E+01  9.0000E+01  9.0000E+01  0.0000E+00  5.6114E+01

       rolling -1.1993E+06  2.1367E+02 -1.2034E+06  2.9244E+05 -1.4959E+06  0.0000E+00  2.7356E-03  0.0000E+00  0.0000E+00
      averages -1.1847E+06  2.2958E+02 -5.2262E+04 -1.5472E+06  1.4950E+06  0.0000E+00 -2.6437E-02  0.0000E+00  0.0000E+00
                5.5682E+03  0.0000E+00  0.0000E+00  0.0000E+00  9.0000E+01  9.0000E+01  9.0000E+01  0.0000E+00  5.2778E+01
 ----------------------------------------------------------------------------------------------------------------------------------
          5000 -1.1993E+06  2.3447E+02 -1.2033E+06  2.9238E+05 -1.4957E+06  0.0000E+00  2.9149E-03  0.0000E+00  0.0000E+00
       5.00000 -1.1845E+06  3.0100E+02 -5.2097E+04 -1.5469E+06  1.4948E+06  0.0000E+00 -2.8155E-02  0.0000E+00  0.0000E+00
        39.391  5.5682E+03  0.0000E+00  0.0000E+00  0.0000E+00  9.0000E+01  9.0000E+01  9.0000E+01  0.0000E+00  5.2761E+01

       rolling -1.1993E+06  2.3345E+02 -1.2034E+06  2.9277E+05 -1.4961E+06  0.0000E+00  2.8348E-03  0.0000E+00  0.0000E+00
      averages -1.1842E+06  2.4592E+02 -5.3413E+04 -1.5486E+06  1.4952E+06  0.0000E+00 -2.7387E-02  0.0000E+00  0.0000E+00
                5.5682E+03  0.0000E+00  0.0000E+00  0.0000E+00  9.0000E+01  9.0000E+01  9.0000E+01  0.0000E+00  5.4047E+01
 ----------------------------------------------------------------------------------------------------------------------------------
          5100 -1.1993E+06  2.5300E+02 -1.2032E+06  2.9113E+05 -1.4943E+06  0.0000E+00  2.9023E-03  0.0000E+00  0.0000E+00
       5.10000 -1.1857E+06  4.6124E+02 -4.7961E+04 -1.5414E+06  1.4934E+06  0.0000E+00 -2.8077E-02  0.0000E+00  0.0000E+00
        40.032  5.5682E+03  0.0000E+00  0.0000E+00  0.0000E+00  9.0000E+01  9.0000E+01  9.0000E+01  0.0000E+00  4.8831E+01

       rolling -1.1993E+06  2.5939E+02 -1.2033E+06  2.9225E+05 -1.4955E+06  0.0000E+00  2.8581E-03  0.0000E+00  0.0000E+00
      averages -1.1845E+06  4.0541E+02 -5.1632E+04 -1.5463E+06  1.4947E+06  0.0000E+00 -2.7614E-02  0.0000E+00  0.0000E+00
                5.5682E+03  0.0000E+00  0.0000E+00  0.0000E+00  9.0000E+01  9.0000E+01  9.0000E+01  0.0000E+00  5.2479E+01
 ----------------------------------------------------------------------------------------------------------------------------------
          5200 -1.1993E+06  2.9006E+02 -1.2031E+06  2.9273E+05 -1.4958E+06  0.0000E+00  3.0333E-03  0.0000E+00  0.0000E+00
       5.20000 -1.1836E+06  4.0286E+02 -5.3360E+04 -1.5483E+06  1.4950E+06  0.0000E+00 -2.9278E-02  0.0000E+00  0.0000E+00
        40.666  5.5682E+03  0.0000E+00  0.0000E+00  0.0000E+00  9.0000E+01  9.0000E+01  9.0000E+01  0.0000E+00  5.4391E+01

       rolling -1.1993E+06  2.8334E+02 -1.2032E+06  2.9209E+05 -1.4953E+06  0.0000E+00  2.8757E-03  0.0000E+00  0.0000E+00
      averages -1.1844E+06  4.4768E+02 -5.1165E+04 -1.5456E+06  1.4944E+06  0.0000E+00 -2.7799E-02  0.0000E+00  0.0000E+00
                5.5682E+03  0.0000E+00  0.0000E+00  0.0000E+00  9.0000E+01  9.0000E+01  9.0000E+01  0.0000E+00  5.2190E+01
 ----------------------------------------------------------------------------------------------------------------------------------
          5300 -1.1993E+06  3.2393E+02 -1.2030E+06  2.9309E+05 -1.4961E+06  0.0000E+00  3.0919E-03  0.0000E+00  0.0000E+00
       5.30000 -1.1829E+06  3.1508E+02 -5.4652E+04 -1.5498E+06  1.4952E+06  0.0000E+00 -2.9882E-02  0.0000E+00  0.0000E+00
        41.303  5.5682E+03  0.0000E+00  0.0000E+00  0.0000E+00  9.0000E+01  9.0000E+01  9.0000E+01  0.0000E+00  5.5900E+01

       rolling -1.1993E+06  3.0683E+02 -1.2031E+06  2.9252E+05 -1.4956E+06  0.0000E+00  3.0563E-03  0.0000E+00  0.0000E+00
      averages -1.1837E+06  2.9615E+02 -5.2676E+04 -1.5473E+06  1.4947E+06  0.0000E+00 -2.9521E-02  0.0000E+00  0.0000E+00
                5.5682E+03  0.0000E+00  0.0000E+00  0.0000E+00  9.0000E+01  9.0000E+01  9.0000E+01  0.0000E+00  5.3842E+01
 ----------------------------------------------------------------------------------------------------------------------------------
          5400 -1.1993E+06  3.6666E+02 -1.2030E+06  2.9123E+05 -1.4942E+06  0.0000E+00  2.9378E-03  0.0000E+00  0.0000E+00
       5.40000 -1.1846E+06  9.7483E+02 -4.8441E+04 -1.5417E+06  1.4933E+06  0.0000E+00 -2.8417E-02  0.0000E+00  0.0000E+00
        41.939  5.5682E+03  0.0000E+00  0.0000E+00  0.0000E+00  9.0000E+01  9.0000E+01  9.0000E+01  0.0000E+00  5.0093E+01

       rolling -1.1993E+06  3.4382E+02 -1.2030E+06  2.9236E+05 -1.4953E+06  0.0000E+00  3.0148E-03  0.0000E+00  0.0000E+00
      averages -1.1836E+06  7.0296E+02 -5.2107E+04 -1.5465E+06  1.4945E+06  0.0000E+00 -2.9123E-02  0.0000E+00  0.0000E+00
                5.5682E+03  0.0000E+00  0.0000E+00  0.0000E+00  9.0000E+01  9.0000E+01  9.0000E+01  0.0000E+00  5.3535E+01
 ----------------------------------------------------------------------------------------------------------------------------------
          5500 -1.1993E+06  4.0906E+02 -1.2029E+06  2.9238E+05 -1.4952E+06  0.0000E+00  3.5200E-03  0.0000E+00  0.0000E+00
       5.50000 -1.1830E+06  1.1033E+03 -5.2215E+04 -1.5466E+06  1.4944E+06  0.0000E+00 -3.3968E-02  0.0000E+00  0.0000E+00
        42.577  5.5682E+03  0.0000E+00  0.0000E+00  0.0000E+00  9.0000E+01  9.0000E+01  9.0000E+01  0.0000E+00  5.4092E+01

       rolling -1.1993E+06  3.7683E+02 -1.2029E+06  2.9188E+05 -1.4947E+06  0.0000E+00  3.1191E-03  0.0000E+00  0.0000E+00
      averages -1.1838E+06  1.0708E+03 -5.0537E+04 -1.5444E+06  1.4939E+06  0.0000E+00 -3.0146E-02  0.0000E+00  0.0000E+00
                5.5682E+03  0.0000E+00  0.0000E+00  0.0000E+00  9.0000E+01  9.0000E+01  9.0000E+01  0.0000E+00  5.2219E+01
 ----------------------------------------------------------------------------------------------------------------------------------
 ----------------------------------------------------------------------------------------------------------------------------------

          step     eng_tot    temp_tot     eng_cfg     eng_src     eng_cou     eng_bnd     eng_ang     eng_dih     eng_tet
      time(ps)      eng_pv    temp_rot     vir_cfg     vir_src     vir_cou     vir_bnd     vir_ang     vir_con     vir_tet
      cpu  (s)      volume    temp_shl     eng_shl     vir_shl       alpha        beta       gamma     vir_pmf       press

 ----------------------------------------------------------------------------------------------------------------------------------
          5600 -1.1993E+06  4.4421E+02 -1.2027E+06  2.9120E+05 -1.4939E+06  0.0000E+00  3.2284E-03  0.0000E+00  0.0000E+00
       5.60000 -1.1839E+06  4.8602E+02 -4.8612E+04 -1.5416E+06  1.4931E+06  0.0000E+00 -3.1202E-02  0.0000E+00  0.0000E+00
        43.217  5.5682E+03  0.0000E+00  0.0000E+00  0.0000E+00  9.0000E+01  9.0000E+01  9.0000E+01  0.0000E+00  5.0821E+01

       rolling -1.1993E+06  4.0968E+02 -1.2027E+06  2.9168E+05 -1.4944E+06  0.0000E+00  3.3128E-03  0.0000E+00  0.0000E+00
      averages -1.1836E+06  9.2368E+02 -4.9901E+04 -1.5434E+06  1.4935E+06  0.0000E+00 -3.2015E-02  0.0000E+00  0.0000E+00
                5.5682E+03  0.0000E+00  0.0000E+00  0.0000E+00  9.0000E+01  9.0000E+01  9.0000E+01  0.0000E+00  5.1831E+01
 ----------------------------------------------------------------------------------------------------------------------------------
          5700 -1.1993E+06  4.6667E+02 -1.2025E+06  2.9005E+05 -1.4926E+06  0.0000E+00  3.5055E-03  0.0000E+00  0.0000E+00
       5.70000 -1.1849E+06  2.3761E+02 -4.4446E+04 -1.5361E+06  1.4917E+06  0.0000E+00 -3.3926E-02  0.0000E+00  0.0000E+00
        43.858  5.5682E+03  0.0000E+00  0.0000E+00  0.0000E+00  9.0000E+01  9.0000E+01  9.0000E+01  0.0000E+00  4.6899E+01

       rolling -1.1993E+06  4.4444E+02 -1.2026E+06  2.9030E+05 -1.4929E+06  0.0000E+00  3.4225E-03  0.0000E+00  0.0000E+00
      averages -1.1847E+06  2.4969E+02 -4.5509E+04 -1.5375E+06  1.4920E+06  0.0000E+00 -3.3116E-02  0.0000E+00  0.0000E+00
                5.5682E+03  0.0000E+00  0.0000E+00  0.0000E+00  9.0000E+01  9.0000E+01  9.0000E+01  0.0000E+00  4.7784E+01
 ----------------------------------------------------------------------------------------------------------------------------------
          5800 -1.1993E+06  4.8508E+02 -1.2023E+06  2.9015E+05 -1.4925E+06  0.0000E+00  3.7073E-03  0.0000E+00  0.0000E+00
       5.80000 -1.1844E+06  5.7542E+02 -4.4936E+04 -1.5365E+06  1.4916E+06  0.0000E+00 -3.5838E-02  0.0000E+00  0.0000E+00
        44.499  5.5682E+03  0.0000E+00  0.0000E+00  0.0000E+00  9.0000E+01  9.0000E+01  9.0000E+01  0.0000E+00  4.7502E+01

       rolling -1.1993E+06  4.8844E+02 -1.2025E+06  2.9032E+05 -1.4928E+06  0.0000E+00  3.4421E-03  0.0000E+00  0.0000E+00
      averages -1.1844E+06  3.2852E+02 -4.5545E+04 -1.5374E+06  1.4919E+06  0.0000E+00 -3.3297E-02  0.0000E+00  0.0000E+00
                5.5682E+03  0.0000E+00  0.0000E+00  0.0000E+00  9.0000E+01  9.0000E+01  9.0000E+01  0.0000E+00  4.8129E+01
 ----------------------------------------------------------------------------------------------------------------------------------
          5900 -1.1993E+06  5.3595E+02 -1.2022E+06  2.9056E+05 -1.4928E+06  0.0000E+00  3.9082E-03  0.0000E+00  0.0000E+00
       5.90000 -1.1835E+06  5.6831E+02 -4.6443E+04 -1.5382E+06  1.4919E+06  0.0000E+00 -3.7847E-02  0.0000E+00  0.0000E+00
        45.140  5.5682E+03  0.0000E+00  0.0000E+00  0.0000E+00  9.0000E+01  9.0000E+01  9.0000E+01  0.0000E+00  4.9341E+01

       rolling -1.1993E+06  5.2480E+02 -1.2023E+06  2.9049E+05 -1.4928E+06  0.0000E+00  3.5707E-03  0.0000E+00  0.0000E+00
      averages -1.1838E+06  6.3695E+02 -4.6197E+04 -1.5380E+06  1.4919E+06  0.0000E+00 -3.4540E-02  0.0000E+00  0.0000E+00
                5.5682E+03  0.0000E+00  0.0000E+00  0.0000E+00  9.0000E+01  9.0000E+01  9.0000E+01  0.0000E+00  4.9018E+01
 ----------------------------------------------------------------------------------------------------------------------------------
          6000 -1.1993E+06  5.4835E+02 -1.2020E+06  2.8948E+05 -1.4915E+06  0.0000E+00  3.5511E-03  0.0000E+00  0.0000E+00
       6.00000 -1.1843E+06  7.9045E+02 -4.3300E+04 -1.5336E+06  1.4906E+06  0.0000E+00 -3.4383E-02  0.0000E+00  0.0000E+00
        45.782  5.5682E+03  0.0000E+00  0.0000E+00  0.0000E+00  9.0000E+01  9.0000E+01  9.0000E+01  0.0000E+00  4.6339E+01

       rolling -1.1993E+06  5.5442E+02 -1.2022E+06  2.9008E+05 -1.4923E+06  0.0000E+00  3.6873E-03  0.0000E+00  0.0000E+00
      averages -1.1838E+06  5.1761E+02 -4.5088E+04 -1.5363E+06  1.4914E+06  0.0000E+00 -3.5703E-02  0.0000E+00  0.0000E+00
                5.5682E+03  0.0000E+00  0.0000E+00  0.0000E+00  9.0000E+01  9.0000E+01  9.0000E+01  0.0000E+00  4.8142E+01
 ----------------------------------------------------------------------------------------------------------------------------------
          6100 -1.1993E+06  5.9883E+02 -1.2020E+06  2.9011E+05 -1.4921E+06  0.0000E+00  3.6783E-03  0.0000E+00  0.0000E+00
       6.10000 -1.1835E+06  1.8087E+03 -4.4754E+04 -1.5359E+06  1.4912E+06  0.0000E+00 -3.5565E-02  0.0000E+00  0.0000E+00
        46.433  5.5682E+03  0.0000E+00  0.0000E+00  0.0000E+00  9.0000E+01  9.0000E+01  9.0000E+01  0.0000E+00  4.8098E+01

       rolling -1.1993E+06  5.9790E+02 -1.2021E+06  2.9004E+05 -1.4921E+06  0.0000E+00  3.7229E-03  0.0000E+00  0.0000E+00
      averages -1.1836E+06  1.7025E+03 -4.4711E+04 -1.5359E+06  1.4913E+06  0.0000E+00 -3.6024E-02  0.0000E+00  0.0000E+00
                5.5682E+03  0.0000E+00  0.0000E+00  0.0000E+00  9.0000E+01  9.0000E+01  9.0000E+01  0.0000E+00  4.8051E+01
 ----------------------------------------------------------------------------------------------------------------------------------
          6200 -1.1993E+06  6.1975E+02 -1.2018E+06  2.9002E+05 -1.4919E+06  0.0000E+00  3.9063E-03  0.0000E+00  0.0000E+00
       6.20000 -1.1832E+06  7.7159E+02 -4.4938E+04 -1.5358E+06  1.4910E+06  0.0000E+00 -3.7884E-02  0.0000E+00  0.0000E+00
        47.077  5.5682E+03  0.0000E+00  0.0000E+00  0.0000E+00  9.0000E+01  9.0000E+01  9.0000E+01  0.0000E+00  4.8452E+01

       rolling -1.1993E+06  6.1897E+02 -1.2019E+06  2.9022E+05 -1.4922E+06  0.0000E+00  3.8545E-03  0.0000E+00  0.0000E+00
      averages -1.1831E+06  9.9567E+02 -4.5524E+04 -1.5367E+06  1.4913E+06  0.0000E+00 -3.7297E-02  0.0000E+00  0.0000E+00
                5.5682E+03  0.0000E+00  0.0000E+00  0.0000E+00  9.0000E+01  9.0000E+01  9.0000E+01  0.0000E+00  4.9015E+01
 ----------------------------------------------------------------------------------------------------------------------------------
          6300 -1.1993E+06  6.6649E+02 -1.2019E+06  2.9129E+05 -1.4932E+06  0.0000E+00  3.9005E-03  0.0000E+00  0.0000E+00
       6.30000 -1.1817E+06  1.1746E+03 -4.8627E+04 -1.5409E+06  1.4923E+06  0.0000E+00 -3.7711E-02  0.0000E+00  0.0000E+00
        47.722  5.5682E+03  0.0000E+00  0.0000E+00  0.0000E+00  9.0000E+01  9.0000E+01  9.0000E+01  0.0000E+00  5.2391E+01

       rolling -1.1993E+06  6.5340E+02 -1.2019E+06  2.9038E+05 -1.4923E+06  0.0000E+00  3.9339E-03  0.0000E+00  0.0000E+00
      averages -1.1827E+06  1.0905E+03 -4.5835E+04 -1.5372E+06  1.4914E+06  0.0000E+00 -3.8069E-02  0.0000E+00  0.0000E+00
                5.5682E+03  0.0000E+00  0.0000E+00  0.0000E+00  9.0000E+01  9.0000E+01  9.0000E+01  0.0000E+00  4.9561E+01
 ----------------------------------------------------------------------------------------------------------------------------------
 ----------------------------------------------------------------------------------------------------------------------------------

          step     eng_tot    temp_tot     eng_cfg     eng_src     eng_cou     eng_bnd     eng_ang     eng_dih     eng_tet
      time(ps)      eng_pv    temp_rot     vir_cfg     vir_src     vir_cou     vir_bnd     vir_ang     vir_con     vir_tet
      cpu  (s)      volume    temp_shl     eng_shl     vir_shl       alpha        beta       gamma     vir_pmf       press

 ----------------------------------------------------------------------------------------------------------------------------------
          6400 -1.1993E+06  6.8500E+02 -1.2018E+06  2.9016E+05 -1.4920E+06  0.0000E+00  3.8688E-03  0.0000E+00  0.0000E+00
       6.40000 -1.1826E+06  9.0158E+02 -4.5251E+04 -1.5362E+06  1.4911E+06  0.0000E+00 -3.7412E-02  0.0000E+00  0.0000E+00
        48.364  5.5682E+03  0.0000E+00  0.0000E+00  0.0000E+00  9.0000E+01  9.0000E+01  9.0000E+01  0.0000E+00  4.9216E+01

       rolling -1.1993E+06  6.7068E+02 -1.2018E+06  2.9040E+05 -1.4922E+06  0.0000E+00  3.8733E-03  0.0000E+00  0.0000E+00
      averages -1.1825E+06  1.1120E+03 -4.5908E+04 -1.5372E+06  1.4914E+06  0.0000E+00 -3.7460E-02  0.0000E+00  0.0000E+00
                5.5682E+03  0.0000E+00  0.0000E+00  0.0000E+00  9.0000E+01  9.0000E+01  9.0000E+01  0.0000E+00  4.9755E+01
 ----------------------------------------------------------------------------------------------------------------------------------
          6500 -1.1993E+06  6.6346E+02 -1.2017E+06  2.9015E+05 -1.4919E+06  0.0000E+00  4.0831E-03  0.0000E+00  0.0000E+00
       6.50000 -1.1827E+06  2.4713E+03 -4.5156E+04 -1.5361E+06  1.4910E+06  0.0000E+00 -3.9508E-02  0.0000E+00  0.0000E+00
        49.005  5.5682E+03  0.0000E+00  0.0000E+00  0.0000E+00  9.0000E+01  9.0000E+01  9.0000E+01  0.0000E+00  4.8933E+01

       rolling -1.1993E+06  6.7171E+02 -1.2018E+06  2.8993E+05 -1.4917E+06  0.0000E+00  3.9443E-03  0.0000E+00  0.0000E+00
      averages -1.1829E+06  1.7069E+03 -4.4525E+04 -1.5352E+06  1.4908E+06  0.0000E+00 -3.8180E-02  0.0000E+00  0.0000E+00
                5.5682E+03  0.0000E+00  0.0000E+00  0.0000E+00  9.0000E+01  9.0000E+01  9.0000E+01  0.0000E+00  4.8390E+01
 ----------------------------------------------------------------------------------------------------------------------------------
          6600 -1.1993E+06  6.7913E+02 -1.2018E+06  2.9112E+05 -1.4929E+06  0.0000E+00  3.9354E-03  0.0000E+00  0.0000E+00
       6.60000 -1.1817E+06  2.5569E+03 -4.8111E+04 -1.5402E+06  1.4920E+06  0.0000E+00 -3.8072E-02  0.0000E+00  0.0000E+00
        49.648  5.5682E+03  0.0000E+00  0.0000E+00  0.0000E+00  9.0000E+01  9.0000E+01  9.0000E+01  0.0000E+00  5.1941E+01

       rolling -1.1993E+06  6.8217E+02 -1.2018E+06  2.9073E+05 -1.4925E+06  0.0000E+00  3.9680E-03  0.0000E+00  0.0000E+00
      averages -1.1821E+06  2.5964E+03 -4.6945E+04 -1.5386E+06  1.4916E+06  0.0000E+00 -3.8373E-02  0.0000E+00  0.0000E+00
                5.5682E+03  0.0000E+00  0.0000E+00  0.0000E+00  9.0000E+01  9.0000E+01  9.0000E+01  0.0000E+00  5.0817E+01
[...]
       673.886  5.5682E+03  0.0000E+00  0.0000E+00  0.0000E+00  9.0000E+01  9.0000E+01  9.0000E+01  0.0000E+00  5.0142E+01

       rolling -1.1993E+06  3.9604E+02 -1.2028E+06  2.9111E+05 -1.4939E+06  0.0000E+00  3.1904E-03  0.0000E+00  0.0000E+00
      averages -1.1844E+06  3.4550E+02 -4.8106E+04 -1.5411E+06  1.4930E+06  0.0000E+00 -3.0857E-02  0.0000E+00  0.0000E+00
                5.5682E+03  0.0000E+00  0.0000E+00  0.0000E+00  9.0000E+01  9.0000E+01  9.0000E+01  0.0000E+00  4.9987E+01
 ----------------------------------------------------------------------------------------------------------------------------------
         98800 -1.1993E+06  3.5906E+02 -1.2030E+06  2.9193E+05 -1.4949E+06  0.0000E+00  2.9136E-03  0.0000E+00  0.0000E+00
      98.80000 -1.1839E+06  1.9280E+02 -5.0782E+04 -1.5448E+06  1.4940E+06  0.0000E+00 -2.8161E-02  0.0000E+00  0.0000E+00
       674.961  5.5682E+03  0.0000E+00  0.0000E+00  0.0000E+00  9.0000E+01  9.0000E+01  9.0000E+01  0.0000E+00  5.2355E+01

       rolling -1.1993E+06  3.6274E+02 -1.2029E+06  2.9177E+05 -1.4947E+06  0.0000E+00  3.1263E-03  0.0000E+00  0.0000E+00
      averages -1.1840E+06  2.2917E+02 -5.0244E+04 -1.5440E+06  1.4938E+06  0.0000E+00 -3.0223E-02  0.0000E+00  0.0000E+00
                5.5682E+03  0.0000E+00  0.0000E+00  0.0000E+00  9.0000E+01  9.0000E+01  9.0000E+01  0.0000E+00  5.1853E+01
 ----------------------------------------------------------------------------------------------------------------------------------
         98900 -1.1993E+06  3.0335E+02 -1.2030E+06  2.9274E+05 -1.4958E+06  0.0000E+00  3.2912E-03  0.0000E+00  0.0000E+00
      98.90000 -1.1834E+06  2.9612E+02 -5.3238E+04 -1.5481E+06  1.4949E+06  0.0000E+00 -3.1798E-02  0.0000E+00  0.0000E+00
       676.039  5.5682E+03  0.0000E+00  0.0000E+00  0.0000E+00  9.0000E+01  9.0000E+01  9.0000E+01  0.0000E+00  5.4368E+01

       rolling -1.1993E+06  3.3214E+02 -1.2030E+06  2.9235E+05 -1.4954E+06  0.0000E+00  3.0737E-03  0.0000E+00  0.0000E+00
      averages -1.1837E+06  2.5878E+02 -5.2035E+04 -1.5465E+06  1.4945E+06  0.0000E+00 -2.9690E-02  0.0000E+00  0.0000E+00
                5.5682E+03  0.0000E+00  0.0000E+00  0.0000E+00  9.0000E+01  9.0000E+01  9.0000E+01  0.0000E+00  5.3392E+01
 ----------------------------------------------------------------------------------------------------------------------------------
         99000 -1.1993E+06  3.0521E+02 -1.2032E+06  2.9139E+05 -1.4946E+06  0.0000E+00  2.8668E-03  0.0000E+00  0.0000E+00
      99.00000 -1.1851E+06  1.8471E+02 -4.8766E+04 -1.5425E+06  1.4937E+06  0.0000E+00 -2.7699E-02  0.0000E+00  0.0000E+00
       677.108  5.5682E+03  0.0000E+00  0.0000E+00  0.0000E+00  9.0000E+01  9.0000E+01  9.0000E+01  0.0000E+00  4.9997E+01

       rolling -1.1993E+06  3.0218E+02 -1.2031E+06  2.9185E+05 -1.4950E+06  0.0000E+00  2.9889E-03  0.0000E+00  0.0000E+00
      averages -1.1845E+06  2.3789E+02 -5.0327E+04 -1.5444E+06  1.4941E+06  0.0000E+00 -2.8887E-02  0.0000E+00  0.0000E+00
                5.5682E+03  0.0000E+00  0.0000E+00  0.0000E+00  9.0000E+01  9.0000E+01  9.0000E+01  0.0000E+00  5.1505E+01
 ----------------------------------------------------------------------------------------------------------------------------------
         99100 -1.1993E+06  2.7354E+02 -1.2033E+06  2.9169E+05 -1.4950E+06  0.0000E+00  2.8780E-03  0.0000E+00  0.0000E+00
      99.10000 -1.1850E+06  1.3909E+02 -4.9873E+04 -1.5440E+06  1.4941E+06  0.0000E+00 -2.7819E-02  0.0000E+00  0.0000E+00
       678.191  5.5682E+03  0.0000E+00  0.0000E+00  0.0000E+00  9.0000E+01  9.0000E+01  9.0000E+01  0.0000E+00  5.0860E+01

       rolling -1.1993E+06  2.7846E+02 -1.2032E+06  2.9168E+05 -1.4949E+06  0.0000E+00  2.9012E-03  0.0000E+00  0.0000E+00
      averages -1.1850E+06  1.5480E+02 -4.9759E+04 -1.5438E+06  1.4940E+06  0.0000E+00 -2.8044E-02  0.0000E+00  0.0000E+00
                5.5682E+03  0.0000E+00  0.0000E+00  0.0000E+00  9.0000E+01  9.0000E+01  9.0000E+01  0.0000E+00  5.0783E+01
 ----------------------------------------------------------------------------------------------------------------------------------
 ----------------------------------------------------------------------------------------------------------------------------------

          step     eng_tot    temp_tot     eng_cfg     eng_src     eng_cou     eng_bnd     eng_ang     eng_dih     eng_tet
      time(ps)      eng_pv    temp_rot     vir_cfg     vir_src     vir_cou     vir_bnd     vir_ang     vir_con     vir_tet
      cpu  (s)      volume    temp_shl     eng_shl     vir_shl       alpha        beta       gamma     vir_pmf       press

 ----------------------------------------------------------------------------------------------------------------------------------
         99200 -1.1993E+06  2.5004E+02 -1.2034E+06  2.9225E+05 -1.4956E+06  0.0000E+00  2.8865E-03  0.0000E+00  0.0000E+00
      99.20000 -1.1847E+06  1.8911E+02 -5.1603E+04 -1.5463E+06  1.4947E+06  0.0000E+00 -2.7906E-02  0.0000E+00  0.0000E+00
       679.261  5.5682E+03  0.0000E+00  0.0000E+00  0.0000E+00  9.0000E+01  9.0000E+01  9.0000E+01  0.0000E+00  5.2390E+01

       rolling -1.1993E+06  2.5146E+02 -1.2033E+06  2.9180E+05 -1.4951E+06  0.0000E+00  2.9065E-03  0.0000E+00  0.0000E+00
      averages -1.1851E+06  1.6460E+02 -5.0163E+04 -1.5444E+06  1.4942E+06  0.0000E+00 -2.8093E-02  0.0000E+00  0.0000E+00
                5.5682E+03  0.0000E+00  0.0000E+00  0.0000E+00  9.0000E+01  9.0000E+01  9.0000E+01  0.0000E+00  5.0987E+01
 ----------------------------------------------------------------------------------------------------------------------------------
         99300 -1.1993E+06  2.2908E+02 -1.2034E+06  2.9208E+05 -1.4955E+06  0.0000E+00  2.8112E-03  0.0000E+00  0.0000E+00
      99.30000 -1.1851E+06  2.2277E+02 -5.0962E+04 -1.5456E+06  1.4946E+06  0.0000E+00 -2.7153E-02  0.0000E+00  0.0000E+00
       680.327  5.5682E+03  0.0000E+00  0.0000E+00  0.0000E+00  9.0000E+01  9.0000E+01  9.0000E+01  0.0000E+00  5.1612E+01

       rolling -1.1993E+06  2.3038E+02 -1.2034E+06  2.9194E+05 -1.4953E+06  0.0000E+00  2.7905E-03  0.0000E+00  0.0000E+00
      averages -1.1851E+06  2.1722E+02 -5.0596E+04 -1.5450E+06  1.4944E+06  0.0000E+00 -2.6972E-02  0.0000E+00  0.0000E+00
                5.5682E+03  0.0000E+00  0.0000E+00  0.0000E+00  9.0000E+01  9.0000E+01  9.0000E+01  0.0000E+00  5.1262E+01
 ----------------------------------------------------------------------------------------------------------------------------------
         99400 -1.1993E+06  1.9518E+02 -1.2035E+06  2.9169E+05 -1.4951E+06  0.0000E+00  2.6459E-03  0.0000E+00  0.0000E+00
      99.40000 -1.1857E+06  9.5268E+01 -4.9812E+04 -1.5440E+06  1.4943E+06  0.0000E+00 -2.5579E-02  0.0000E+00  0.0000E+00
       681.398  5.5682E+03  0.0000E+00  0.0000E+00  0.0000E+00  9.0000E+01  9.0000E+01  9.0000E+01  0.0000E+00  5.0247E+01

       rolling -1.1993E+06  2.0963E+02 -1.2034E+06  2.9216E+05 -1.4956E+06  0.0000E+00  2.7733E-03  0.0000E+00  0.0000E+00
      averages -1.1851E+06  1.7524E+02 -5.1290E+04 -1.5460E+06  1.4947E+06  0.0000E+00 -2.6804E-02  0.0000E+00  0.0000E+00
                5.5682E+03  0.0000E+00  0.0000E+00  0.0000E+00  9.0000E+01  9.0000E+01  9.0000E+01  0.0000E+00  5.1797E+01
 ----------------------------------------------------------------------------------------------------------------------------------
         99500 -1.1993E+06  1.8121E+02 -1.2035E+06  2.9231E+05 -1.4958E+06  0.0000E+00  2.6636E-03  0.0000E+00  0.0000E+00
      99.50000 -1.1851E+06  8.3218E+01 -5.1925E+04 -1.5468E+06  1.4949E+06  0.0000E+00 -2.5752E-02  0.0000E+00  0.0000E+00
       682.462  5.5682E+03  0.0000E+00  0.0000E+00  0.0000E+00  9.0000E+01  9.0000E+01  9.0000E+01  0.0000E+00  5.2222E+01

       rolling -1.1993E+06  1.9504E+02 -1.2035E+06  2.9238E+05 -1.4959E+06  0.0000E+00  2.7004E-03  0.0000E+00  0.0000E+00
      averages -1.1850E+06  5.3757E+01 -5.2117E+04 -1.5471E+06  1.4950E+06  0.0000E+00 -2.6090E-02  0.0000E+00  0.0000E+00
                5.5682E+03  0.0000E+00  0.0000E+00  0.0000E+00  9.0000E+01  9.0000E+01  9.0000E+01  0.0000E+00  5.2508E+01
 ----------------------------------------------------------------------------------------------------------------------------------
         99600 -1.1993E+06  1.7602E+02 -1.2036E+06  2.9255E+05 -1.4962E+06  0.0000E+00  2.6997E-03  0.0000E+00  0.0000E+00
      99.60000 -1.1850E+06  1.8666E+02 -5.2647E+04 -1.5479E+06  1.4953E+06  0.0000E+00 -2.6091E-02  0.0000E+00  0.0000E+00
       683.532  5.5682E+03  0.0000E+00  0.0000E+00  0.0000E+00  9.0000E+01  9.0000E+01  9.0000E+01  0.0000E+00  5.2890E+01

       rolling -1.1993E+06  1.8029E+02 -1.2036E+06  2.9235E+05 -1.4959E+06  0.0000E+00  2.6335E-03  0.0000E+00  0.0000E+00
      averages -1.1852E+06  1.4100E+02 -5.1946E+04 -1.5470E+06  1.4950E+06  0.0000E+00 -2.5451E-02  0.0000E+00  0.0000E+00
                5.5682E+03  0.0000E+00  0.0000E+00  0.0000E+00  9.0000E+01  9.0000E+01  9.0000E+01  0.0000E+00  5.2234E+01
 ----------------------------------------------------------------------------------------------------------------------------------
         99700 -1.1993E+06  1.5908E+02 -1.2036E+06  2.9328E+05 -1.4969E+06  0.0000E+00  2.6292E-03  0.0000E+00  0.0000E+00
      99.70000 -1.1844E+06  1.8261E+02 -5.4922E+04 -1.5509E+06  1.4960E+06  0.0000E+00 -2.5380E-02  0.0000E+00  0.0000E+00
       684.598  5.5682E+03  0.0000E+00  0.0000E+00  0.0000E+00  9.0000E+01  9.0000E+01  9.0000E+01  0.0000E+00  5.5003E+01

       rolling -1.1993E+06  1.6480E+02 -1.2036E+06  2.9268E+05 -1.4963E+06  0.0000E+00  2.6159E-03  0.0000E+00  0.0000E+00
      averages -1.1850E+06  1.9043E+02 -5.2980E+04 -1.5484E+06  1.4954E+06  0.0000E+00 -2.5273E-02  0.0000E+00  0.0000E+00
                5.5682E+03  0.0000E+00  0.0000E+00  0.0000E+00  9.0000E+01  9.0000E+01  9.0000E+01  0.0000E+00  5.3138E+01
 ----------------------------------------------------------------------------------------------------------------------------------
         99800 -1.1993E+06  1.5173E+02 -1.2037E+06  2.9299E+05 -1.4967E+06  0.0000E+00  2.5781E-03  0.0000E+00  0.0000E+00
      99.80000 -1.1848E+06  1.7797E+02 -5.3969E+04 -1.5497E+06  1.4958E+06  0.0000E+00 -2.4892E-02  0.0000E+00  0.0000E+00
       685.667  5.5682E+03  0.0000E+00  0.0000E+00  0.0000E+00  9.0000E+01  9.0000E+01  9.0000E+01  0.0000E+00  5.4015E+01

       rolling -1.1993E+06  1.5381E+02 -1.2037E+06  2.9299E+05 -1.4966E+06  0.0000E+00  2.6036E-03  0.0000E+00  0.0000E+00
      averages -1.1847E+06  1.7767E+02 -5.3990E+04 -1.5497E+06  1.4958E+06  0.0000E+00 -2.5147E-02  0.0000E+00  0.0000E+00
                5.5682E+03  0.0000E+00  0.0000E+00  0.0000E+00  9.0000E+01  9.0000E+01  9.0000E+01  0.0000E+00  5.4051E+01
 ----------------------------------------------------------------------------------------------------------------------------------
         99900 -1.1993E+06  1.3878E+02 -1.2037E+06  2.9351E+05 -1.4972E+06  0.0000E+00  2.6327E-03  0.0000E+00  0.0000E+00
      99.90000 -1.1843E+06  1.6784E+02 -5.5685E+04 -1.5520E+06  1.4963E+06  0.0000E+00 -2.5425E-02  0.0000E+00  0.0000E+00
       686.736  5.5682E+03  0.0000E+00  0.0000E+00  0.0000E+00  9.0000E+01  9.0000E+01  9.0000E+01  0.0000E+00  5.5609E+01

       rolling -1.1993E+06  1.4404E+02 -1.2037E+06  2.9285E+05 -1.4965E+06  0.0000E+00  2.5615E-03  0.0000E+00  0.0000E+00
      averages -1.1850E+06  1.7781E+02 -5.3497E+04 -1.5491E+06  1.4957E+06  0.0000E+00 -2.4740E-02  0.0000E+00  0.0000E+00
                5.5682E+03  0.0000E+00  0.0000E+00  0.0000E+00  9.0000E+01  9.0000E+01  9.0000E+01  0.0000E+00  5.3499E+01
 ----------------------------------------------------------------------------------------------------------------------------------
 ----------------------------------------------------------------------------------------------------------------------------------

          step     eng_tot    temp_tot     eng_cfg     eng_src     eng_cou     eng_bnd     eng_ang     eng_dih     eng_tet
      time(ps)      eng_pv    temp_rot     vir_cfg     vir_src     vir_cou     vir_bnd     vir_ang     vir_con     vir_tet
      cpu  (s)      volume    temp_shl     eng_shl     vir_shl       alpha        beta       gamma     vir_pmf       press

 ----------------------------------------------------------------------------------------------------------------------------------
        100000 -1.1993E+06  1.3120E+02 -1.2037E+06  2.9286E+05 -1.4966E+06  0.0000E+00  2.5578E-03  0.0000E+00  0.0000E+00
     100.00000 -1.1851E+06  1.4846E+02 -5.3539E+04 -1.5492E+06  1.4957E+06  0.0000E+00 -2.4721E-02  0.0000E+00  0.0000E+00
       687.802  5.5682E+03  0.0000E+00  0.0000E+00  0.0000E+00  9.0000E+01  9.0000E+01  9.0000E+01  0.0000E+00  5.3450E+01

       rolling -1.1993E+06  1.3429E+02 -1.2037E+06  2.9295E+05 -1.4967E+06  0.0000E+00  2.5485E-03  0.0000E+00  0.0000E+00
      averages -1.1850E+06  1.5540E+02 -5.3842E+04 -1.5496E+06  1.4958E+06  0.0000E+00 -2.4619E-02  0.0000E+00  0.0000E+00
                5.5682E+03  0.0000E+00  0.0000E+00  0.0000E+00  9.0000E+01  9.0000E+01  9.0000E+01  0.0000E+00  5.3769E+01
 ----------------------------------------------------------------------------------------------------------------------------------


 run terminating...  elapsed cpu time:      687.806 sec, job time:   100000.000 sec, close time:      100.000 sec



 sample of final configuration on node zero

        i       x(i)        y(i)        z(i)       vx(i)       vy(i)       vz(i)       fx(i)       fy(i)       fz(i)


        1  1.5970E+00 -1.2507E+00 -4.4860E+00 -1.6039E+00 -2.1773E+00 -3.5163E+00  1.2916E+04  9.0792E+03  5.6169E+03
       16  2.4926E+00  8.8247E+00 -6.5050E+00 -1.5012E+00 -3.7381E+00  5.2647E-01  3.2419E+03 -2.6168E+03  3.4012E+03
       31 -6.1972E+00  2.4713E+00 -4.1873E+00 -1.5423E+00  1.5012E+00 -6.4341E-01 -4.4554E+03  2.0736E+03  4.9621E+03
       46 -3.7680E+00  6.4995E+00 -2.3892E+00  4.1262E-02 -3.0172E-01  1.9752E-01  6.4521E+02  3.8587E+03 -8.9492E+03
       61  7.7383E+00 -1.1462E+00  3.7800E-01  9.9542E-01  1.2040E+00 -3.9115E+00  6.6244E+03  9.3093E+03  1.2605E+04
       76  8.5473E+00 -6.6439E+00  2.0571E+00 -9.9230E-01 -1.5940E+00 -1.8519E-01  1.0870E+04  1.4419E+04  1.1733E+04
       91 -8.6135E+00 -2.5727E+00  2.5293E+00  7.2271E-02  1.8182E+00  3.0319E+00 -2.4649E+03  5.5947E+03 -1.4391E+03
      106 -6.0472E+00  8.7866E+00 -3.5054E-01 -1.4135E+00  3.9562E+00 -2.1360E+00  3.4801E+03  1.5546E+03  1.3589E+03
      121  2.7831E+00  3.1286E+00 -3.4862E+00  1.2576E-01 -2.4366E+00  1.1880E+00 -1.0114E+04 -1.8203E+03 -5.6874E+03
      136  8.1299E+00  7.0327E+00 -1.2838E+00  3.8683E+00  2.9179E+00 -3.1571E+00 -1.3749E+03  2.1945E+03  1.1719E+04
      151 -1.4045E+00  9.5422E-01 -4.2588E+00  3.6337E+00 -1.2397E+00  2.5836E+00  1.8920E+03  5.8975E+02  5.5600E+03
      166 -3.8698E+00 -7.6231E+00 -1.5200E+00 -2.0218E+00 -2.6943E+00 -1.2782E+00  1.0156E+03  6.3058E+03  1.1955E+04
      181 -1.0011E+01  3.0281E+00 -2.6325E+00 -1.9721E+00  1.0529E+00 -5.6725E+00 -3.4993E+03  2.7374E+03 -3.6107E+03
      196  7.4913E+00  8.8923E+00  3.2776E+00  1.5917E+00 -4.6716E+00  2.6974E+00 -1.5112E+04  3.0140E+03  1.0133E+04
      211 -7.6031E+00  1.1185E+00  3.5944E+00 -2.8114E+00  4.2480E-01 -1.0842E+00  8.2062E+02 -4.8839E+03  1.7397E+03
      226 -4.1666E+00  6.6971E+00  6.4225E+00  3.1926E+00 -1.6987E+00  9.4522E-01  6.5133E+03 -6.4932E+02  2.4814E+02
      241  6.4534E+00 -9.9320E-01  4.1223E+00 -2.2963E+00  4.0747E+00 -1.9615E+00 -1.1356E+03 -8.2437E+03 -2.8927E+03
      256  8.2259E+00 -1.0053E+01  1.2267E+00  1.9790E-02  6.3757E-01 -2.8172E+00  2.1520E+02 -3.4181E+03 -2.5985E+03
      271 -6.0312E+00 -2.5947E+00  5.5701E+00  9.9730E-01 -1.4917E+00  5.1827E-01 -6.1310E+02 -1.1856E+03 -3.7176E+03
      286 -5.9641E+00  4.9574E+00  6.2788E+00 -1.3731E+00 -9.0753E-01  3.5217E+00  3.5434E+03  8.5652E+03 -2.0870E+03


 VNL skipping run statistics - skips per timestep: average   10.23 minimum    3 maximum   30


 run terminated after   100000 steps (   100.000 ps), final averages calculated over   100000 steps (   100.000 ps).


 ----------------------------------------------------------------------------------------------------------------------------------

          step     eng_tot    temp_tot     eng_cfg     eng_src     eng_cou     eng_bnd     eng_ang     eng_dih     eng_tet
      time(ps)      eng_pv    temp_rot     vir_cfg     vir_src     vir_cou     vir_bnd     vir_ang     vir_con     vir_tet
      cpu  (s)      volume    temp_shl     eng_shl     vir_shl       alpha        beta       gamma     vir_pmf       press

 ----------------------------------------------------------------------------------------------------------------------------------
        100000 -1.1993E+06  3.0170E+02 -1.2031E+06  2.9200E+05 -1.4951E+06  0.0000E+00  2.9606E-03  0.0000E+00  0.0000E+00
     100.00000 -1.1844E+06  2.9555E+02 -5.0805E+04 -1.5450E+06  1.4942E+06  0.0000E+00 -2.8614E-02  0.0000E+00  0.0000E+00
       687.812  5.5682E+03  0.0000E+00  0.0000E+00  0.0000E+00  9.0000E+01  9.0000E+01  9.0000E+01  0.0000E+00  5.1969E+01

       r.m.s.   4.1642E+00  1.9686E+02  7.1187E+02  1.2785E+03  1.8955E+03  0.0000E+00  5.2510E-04  0.0000E+00  0.0000E+00
      fluctu-   1.1807E+03  3.9268E+02  4.0980E+03  5.9636E+03  1.8890E+03  0.0000E+00  5.0910E-03  0.0000E+00  0.0000E+00
      ations    0.0000E+00  0.0000E+00  0.0000E+00  0.0000E+00  0.0000E+00  0.0000E+00  0.0000E+00  0.0000E+00  3.0665E+00
 ----------------------------------------------------------------------------------------------------------------------------------

 Extended energy:         2.7212E+03      r.m.s. fluctuations:    1.4144E+03

 ----------------------------------------------------------------------------------------------------------------------------------


            Approximate 3D Diffusion Coefficients and square root of MSDs

            atom         DC (10^-9 m^2 s^-1)   Sqrt[MSD] (Ang)

            Si                0.0000E+00          2.5834E-01
            O                 0.0000E+00          3.2324E-01
            C                 0.0000E+00          3.8641E+00
            H                 0.0000E+00          4.7361E+00


                Average pressure tensor  (katms)                              r.m.s. fluctuations

           4.9427E+01  9.9331E-04  2.4326E-02                          4.5365E+00  1.5820E+00  2.4967E+00
           9.9331E-04  5.3836E+01  1.8736E-03                          1.5820E+00  4.5179E+00  2.4587E+00
           2.4326E-02  1.8736E-03  5.2645E+01                          2.4967E+00  2.4587E+00  4.1267E+00

            trace/3    5.1969E+01



 time elapsed since job start:      687.812 sec



 *************************************************************************************************************************
 **************                                                                                             **************
 **************  Thank you for using the DL_POLY_4 package in your work.  Please, acknowledge our efforts   **************
 **************                                                                                             **************
 **************  by including the following references when publishing data obtained using DL_POLY_4:       **************
 **************                                                                                             **************
 **************  I.T. Todorov, W. Smith, K. Trachenko & M.T. Dove, `J. Mater. Chem.', 16, 1911-1918 (2006)  **************
 **************  I.J. Bush, I.T. Todorov & W. Smith, `Comp. Phys. Commun.', 175, 323-329 (2006)             **************
 **************                                                                                             **************
 *************************************************************************************************************************

