 ******************************************************************
 *************  stfc/ccp5  program  library  package  ** D ********
 *************  daresbury laboratory general purpose  *** L *******
 **         **  classical molecular dynamics program  **** \ ******
 ** DL_POLY **  authors:   i.t.todorov   &   w.smith  ***** P *****
 **         **  version:   4.09.1  /  november 2018   ****** O ****
 *************  execution on           1 process(es)  ******* L ***
 *************  contributors' list:                   ******** Y **
 *************  ------------------------------------  *************
 *************  i.j.bush, h.a.boateng, r.davidchak,   *************
 *************  m.a.seaton, a.v.brukhno, a.m.elena,   *************
 *************  s.l.daraszewicz,g.khara,s.t.murphy    *************
 ******************************************************************

 ******************************************************************
 **** birthday: Dec 16 2022 @ 15:29:49                         ****
 ****  machine: chip                                           ****
 ****  builder: Alistar OTTOCHIAN                              ****
 **** compiler: gfortran v8.5.0 20210514 (Red Hat 8.5.0-15)    ****
 ****      MPI: v3.1                                           ****
 **** MPI libs: Open MPI v3.0.0, package: Open MPI alistar@chi ****
 **** MPI libs: p Distribution, ident: 3.0.0, repo rev: v3.0.0 ****
 **** MPI libs: , Sep 12, 2017                                 ****
 **** executed: 2026-01-30  @  14:32:33.622  (GMT+01:00)       ****
 ******************************************************************

 ******************************************************************
 ****  ~~~~~~~~~~~~~~~~~~~~~~~~~~~~~~~~~~~~~~~~~~~~~~~~~~~~~~  ****
 ****  Please do cite `J. Mater. Chem.', 16, 1911-1918 (2006)  ****
 ****  ^^^^^^^^^^^^^^^^^^^^^^^^^^^^^^^^^^^^^^^^^^^^^^^^^^^^^^  ****
 ****  when publishing research data obtained using DL_POLY_4  ****
 ****  ^^^^^^^^^^^^^^^^^^^^^^^^^^^^^^^^^^^^^^^^^^^^^^^^^^^^^^  ****
 ******************************************************************

 HISTORY file is HISTORY.dlpolyhist

 I/O read method: parallel by using MPI-I/O (assumed)
 I/O readers (assumed)                   1
 I/O read batch size (assumed)     2000000
 I/O read buffer size (assumed)      20000
 I/O parallel read error checking off (assumed)

 I/O write method: parallel by using MPI-I/O (assumed)
 I/O write type: data sorting on (assumed)
 I/O writers (assumed)                   1
 I/O write batch size (assumed)    2000000
 I/O write buffer size (assumed)     20000
 I/O parallel write error checking off (assumed)

 *** warning - DD cutoff check: rcut=Max(rcut,rvdw,rmet,rkim,rcbnd,2.0_wp*rcter+1.0e-6_wp) ! ***

 warning issued     40

 *** warning - tentative cutoff reset to   6.500 Angstroms !!! ***



 node/domain decomposition (x,y,z):      1     1     1

 pure cutoff driven limit on largest possible decomposition:    18 nodes/domains (3,3,2)

 pure cutoff driven limit on largest balanced decomposition:     1 nodes/domains (1,1,1)

 cutoffs driven limit on largest possible decomposition:    18 nodes/domains (3,3,2)

 cutoffs driven limit on largest balanced decomposition:     1 nodes/domains (1,1,1)

 link-cell decomposition 1 (x,y,z):      3     3     2

 warning issued    100

 *** warning - primary link cell algorithm has a link cell dimension that is < 3 !!! ***
 *** DL_POLY_4 RUNNING IN LOW EFFICIENCY MODE !!! ***


 link-cell decomposition 2 (x,y,z):     10    10     6

 *** pre-scanning stage (set_bounds) DONE ***

 time elapsed since job start:        0.009 sec

 **********************************************************************************************************************************
 **********************************************************************************************************************************
 **********************************************************************************************************************************
 ************************     Silicalite simulation : Sauer model sans shell + Benzene                     ************************
 **********************************************************************************************************************************
 **********************************************************************************************************************************
 **********************************************************************************************************************************


 SIMULATION CONTROL PARAMETERS

 warning issued     35

 *** warning - DL_POLY_2/Classic directive 'delr - Verlet shell strip cutoff' defaulted to ***
 *** DL_POLY_4 directive 'rpad - real space cutoff padding option' ; rpad=Max(rpad,delr/4) !!! ***

 cutoff padding (Angs)               1.2500E-01

 vdw cutoff (Angs)                   6.5000E+00

 vdw force-shifting option on

 real space cutoff (Angs)            6.5000E+00

 Electrostatics : Smooth Particle Mesh Ewald
 Ewald sum precision                 1.0000E-06
 Ewald convergence parameter (A^-1)  5.0333E-01
 Ewald kmax1 kmax2 kmax3   (x2)    20   20   14
 DaFT adjusted kmax values (x2)    20   20   15
 B-spline interpolation order            8
 k-space evaluation interval (steps)     1

 density variation allowance (%)     1.0000E+01

 radomisation seeds supplied
 (seed1,seed2,seed3)               14    1 2022

 selected number of timesteps        10000

 simulation temperature (K)          3.0000E+02

 simulation pressure (katms)         0.0000E+00

 Integration : Velocity Verlet
 Ensemble : NVT Nose-Hoover
 thermostat relaxation time (ps)     1.0000E+00

 trajectory file option on
 trajectory file start                   0
 trajectory file interval             1000
 trajectory file info key                0

 data printing interval (steps)         10

 statistics file interval               10

 no strict option on
 *** Warning *** It skips printing inessential information in OUTPUT such as many warnings, FIELD
 *** wArning *** digested information and full iteration cycles information from CGM based routines!
 *** waRning *** However, it also assumes some, deemed safe, defaults for some specified as well as
 *** warNing *** unspecified by the user options, that may or may not be needed for the simulation to run!
 *** warnIng *** The defaults are deemed to deliver safer passage as well as optimal performance without
 *** warniNg *** sacrificing on accuracy!  While it may, by chance, help to pass previously failing runs
 *** warninG *** it may as well lead to a run failure without warnings!  Beware, avoid usage if uncertain!

 warning issued     36

 *** warning - DL_POLY_2/Classic directive 'mult(iple timestep)' defaulted to ***
 *** DL_POLY_4 directive 'infrequent k-space SPME evaluation' !!! ***


 clean start requested

 Extended Coulombic eXclusion : NO

 fixed simulation timestep (ps)      1.0000E-03

 data dumping interval (steps)        1000

 subcelling threshold density        5.0000E+01

 allocated job run time   (s)        1.0000E+05

 allocated job close time (s)        1.0000E+02


 SYSTEM SPECIFICATION

 energy units = kJ/mol


 number of molecular types               2


 molecular species type                  1

 name of species:             ZEOLITE ZSM5 (SILICALITE)               

 number of molecules                     1

 number of atoms/sites                 288

 atomic characteristics:

               site    name             mass         charge      repeat      freeze

                  1    Si            28.085500       4.000000        96         0
                 97    O             15.999400      -2.000000       192         0


 molecular species type                  2

 name of species:             BENZENE                                 

 number of molecules                     1

 number of atoms/sites                  12

 atomic characteristics:

               site    name             mass         charge      repeat      freeze

                  1    C             12.000000      -0.075000         6         0
                  7    H              1.008000       0.075000         6         0


 number of rigid bodies                  1

 rigid body details:

                  unit      size            indices

                     1        12         1         2         3         4         5         6         7         8         9        10
                                            11        12


 total number of molecules               2

 total number of sites                 300


 number of specified vdw potentials                5

       pair     atom 1  atom 2     key                              parameters

          1     Si      Si         buck             0.000000            0.300170            0.000000            0.000000            0.000000            0.000000            0.000000
          2     O       O          buck             0.000000            0.300170            0.000000            0.000000            0.000000            0.000000            0.000000
          3     Si      O          buck        149643.890000            0.300170            0.000000            0.000000            0.000000            0.000000            0.000000
          4     C       O          12-6       1335000.000000         1807.000000            0.000000            0.000000            0.000000            0.000000            0.000000
          5     H       O          12-6        159900.000000          510.800000            0.000000            0.000000            0.000000            0.000000            0.000000

 warning issued    120

 *** warning - unspecified atom-atom interactions set to zero !!! ***



 number of specified three-body potentials         1

    triplet     atom 1  atom 2  atom 3     key                      parameters

          1     O       Si      O          shrm       17.750400     109.466667       0.327690       0.327690       2.000000

 configuration file name: 

          Diffusion in Zeolites. ZSM5 (Silicate) Crystal Structure, Si(96)O(192) +


 selected image convention               2


 simulation cell vectors

       20.3183600000        0.0000000000        0.0000000000
        0.0000000000       20.1714600000        0.0000000000
        0.0000000000        0.0000000000       13.5858629500


 system volume            5568.17932579    

 *** all reading and connectivity checks DONE ***

 time elapsed since job start:        0.010 sec

 *** initialisation and haloing DONE ***

 time elapsed since job start:        0.011 sec

 //==============================================================\\
 ||                                                              ||
 ||           SUMMARY  OF  TOPOLOGICAL  DECOMPOSITION            ||
 ||                                                              ||
 ||--------------------------------------------------------------||
 ||  INTERACTION  OR  TYPE  |  GRAND TOTAL | Fully/Partly FROZEN ||
 ||-------------------------+--------------+---------------------||
 ||  all particles/sites    |         300  |  F            0     ||
 ||  free particles         |         288  |  F            0     ||
 ||  core-shell units       |           0  |  P            0     ||
 ||  constraint bond units  |           0  |  F            0     ||
 ||  PMF units              |           0  |  P         NONE     ||
 ||  rigid body units       |           1  |  F            0     ||
 ||  tethered atom units    |           0  |  F            0     ||
 ||  chemical bond units    |           0  |  F            0     ||
 ||  bond angle units       |           0  |  F            0     ||
 ||  dihedral angle units   |           0  |  F            0     ||
 ||  inversion angle units  |           0  |  F            0     ||
 \\==============================================================//


 *** bookkeeping DONE ***

 time elapsed since job start:        0.011 sec


 degrees of freedom break-down list
 ----------------------------------
 free particles                 864
 centre of mass                  -3
 non-periodicity                  0
 frozen free particles            0
 shell-pseudo                     0
 constrained                      0
 RB translational                 3
 RB rotational                    3
 ----------------------------------
 total (real)                   867

 *** temperature setting DONE ***

 time elapsed since job start:        0.012 sec


 sample of starting configuration on node zero

        i       x(i)        y(i)        z(i)       vx(i)       vy(i)       vz(i)


        1  1.4730E+00 -1.0837E+00 -4.4827E+00  4.5933E+00  1.5145E+00  4.0501E-01
       16  2.4713E+00  8.7049E+00 -6.4092E+00  5.2716E+00 -1.3794E+00 -3.6215E+00
       31 -6.2741E+00  2.6468E+00 -4.4810E+00 -4.4461E+00 -9.0610E-01 -3.4616E+00
       46 -3.7398E+00  6.5486E+00 -2.4718E+00  3.0051E+00  1.5488E+00  2.3605E+00
       61  7.7145E+00 -1.1333E+00  5.1512E-01 -3.9739E-01  1.0674E+00  2.5929E+00
       76  8.5453E+00 -6.5882E+00  2.2894E+00  5.3385E+00  3.0843E+00 -2.3282E-01
       91 -8.5965E+00 -2.5947E+00  2.1618E+00 -7.9262E-01 -2.5392E+00  2.9632E-01
      106 -5.9340E+00  8.8895E+00 -4.2166E-01  1.3664E+00 -4.6389E+00 -7.2297E-01
      121  2.6693E+00  2.9078E+00 -3.2592E+00 -2.9935E+00 -3.1727E+00 -1.9608E+00
      136  8.5363E+00  7.0068E+00 -1.0459E+00 -7.7038E+00 -5.2814E+00  1.2331E-01
      151 -1.4608E+00  1.0934E+00 -4.6261E+00  3.7387E+00 -7.2527E+00  7.8482E+00
      166 -3.7273E+00 -7.5298E+00 -1.7592E+00 -2.6794E+00 -6.6618E-01  1.5703E+00
      181 -9.9001E+00  2.8966E+00 -2.6548E+00  1.6815E+00  3.7945E+00 -1.7753E+00
      196  7.4963E+00  9.1911E+00  3.3953E+00 -9.8249E-01  5.2305E+00 -1.9525E+00
      211 -7.6045E+00  1.0725E+00  3.6447E+00 -3.3357E-01 -3.0481E+00 -2.4005E+00
      226 -3.9899E+00  6.7687E+00  6.2443E+00  6.0013E+00 -2.7718E+00  3.7986E+00
      241  6.8526E+00 -1.1248E+00  4.5092E+00 -5.4497E+00  3.6348E+00 -2.4671E-02
      256  8.3321E+00 -9.9013E+00  1.1942E+00  3.3133E+00 -5.5282E+00 -3.0019E+00
      271 -6.0414E+00 -2.4904E+00  5.4357E+00 -1.9064E+00  8.1201E-01  3.0838E+00
      286 -6.0678E+00  5.1972E+00  6.1045E+00  2.0457E+00  1.2110E+00  2.9968E+00



 time elapsed since job start:        0.012 sec

 forces evaluated at (re)start for VV integration...

 ----------------------------------------------------------------------------------------------------------------------------------

          step     eng_tot    temp_tot     eng_cfg     eng_src     eng_cou     eng_bnd     eng_ang     eng_dih     eng_tet
      time(ps)      eng_pv    temp_rot     vir_cfg     vir_src     vir_cou     vir_bnd     vir_ang     vir_con     vir_tet
      cpu  (s)      volume    temp_shl     eng_shl     vir_shl       alpha        beta       gamma     vir_pmf       press

 ----------------------------------------------------------------------------------------------------------------------------------
             0 -1.1993E+06  3.0000E+02 -1.2004E+06  2.8028E+05 -1.4807E+06  0.0000E+00  2.8395E-03  0.0000E+00  0.0000E+00
       0.00000 -1.1937E+06  3.0000E+02 -1.4581E+04 -1.4940E+06  1.4798E+06  0.0000E+00 -2.7618E-02  0.0000E+00  0.0000E+00
         0.020  5.5682E+03  0.0000E+00  0.0000E+00  0.0000E+00  9.0000E+01  9.0000E+01  9.0000E+01  0.0000E+00  1.6420E+01

       rolling  0.0000E+00  0.0000E+00  0.0000E+00  0.0000E+00  0.0000E+00  0.0000E+00  0.0000E+00  0.0000E+00  0.0000E+00
      averages  0.0000E+00  0.0000E+00  0.0000E+00  0.0000E+00  0.0000E+00  0.0000E+00  0.0000E+00  0.0000E+00  0.0000E+00
                0.0000E+00  0.0000E+00  0.0000E+00  0.0000E+00  0.0000E+00  0.0000E+00  0.0000E+00  0.0000E+00  0.0000E+00
 ----------------------------------------------------------------------------------------------------------------------------------
 ----------------------------------------------------------------------------------------------------------------------------------

          step     eng_tot    temp_tot     eng_cfg     eng_src     eng_cou     eng_bnd     eng_ang     eng_dih     eng_tet
      time(ps)      eng_pv    temp_rot     vir_cfg     vir_src     vir_cou     vir_bnd     vir_ang     vir_con     vir_tet
      cpu  (s)      volume    temp_shl     eng_shl     vir_shl       alpha        beta       gamma     vir_pmf       press

 ----------------------------------------------------------------------------------------------------------------------------------
             1 -1.1993E+06  3.1456E+02 -1.2005E+06  2.8042E+05 -1.4809E+06  0.0000E+00  2.8277E-03  0.0000E+00  0.0000E+00
       0.00100 -1.1936E+06  3.1019E+02 -1.5034E+04 -1.4947E+06  1.4800E+06  0.0000E+00 -2.7507E-02  0.0000E+00  0.0000E+00
         0.030  5.5682E+03  0.0000E+00  0.0000E+00  0.0000E+00  9.0000E+01  9.0000E+01  9.0000E+01  0.0000E+00  1.6966E+01

       rolling -1.1993E+06  3.1456E+02 -1.2005E+06  2.8042E+05 -1.4809E+06  0.0000E+00  2.8277E-03  0.0000E+00  0.0000E+00
      averages -1.1936E+06  3.1019E+02 -1.5034E+04 -1.4947E+06  1.4800E+06  0.0000E+00 -2.7507E-02  0.0000E+00  0.0000E+00
                5.5682E+03  0.0000E+00  0.0000E+00  0.0000E+00  9.0000E+01  9.0000E+01  9.0000E+01  0.0000E+00  1.6966E+01
 ----------------------------------------------------------------------------------------------------------------------------------

 cutoff padding reset from  0.12 Angs to  0.27 Angs

            10 -1.1993E+06  6.9659E+02 -1.2018E+06  2.8697E+05 -1.4888E+06  0.0000E+00  3.5678E-03  0.0000E+00  0.0000E+00
       0.01000 -1.1860E+06  3.8404E+02 -3.5100E+04 -1.5227E+06  1.4879E+06  0.0000E+00 -3.4550E-02  0.0000E+00  0.0000E+00
         0.087  5.5682E+03  0.0000E+00  0.0000E+00  0.0000E+00  9.0000E+01  9.0000E+01  9.0000E+01  0.0000E+00  3.9353E+01

       rolling -1.1993E+06  5.4857E+02 -1.2013E+06  2.8314E+05 -1.4845E+06  0.0000E+00  3.0511E-03  0.0000E+00  0.0000E+00
      averages -1.1902E+06  3.5012E+02 -2.3343E+04 -1.5066E+06  1.4836E+06  0.0000E+00 -2.9643E-02  0.0000E+00  0.0000E+00
                5.5682E+03  0.0000E+00  0.0000E+00  0.0000E+00  9.0000E+01  9.0000E+01  9.0000E+01  0.0000E+00  2.6772E+01
 ----------------------------------------------------------------------------------------------------------------------------------
            20 -1.1993E+06  7.9158E+02 -1.2022E+06  2.9289E+05 -1.4951E+06  0.0000E+00  3.9529E-03  0.0000E+00  0.0000E+00
       0.02000 -1.1792E+06  4.3666E+02 -5.4824E+04 -1.5487E+06  1.4942E+06  0.0000E+00 -3.8190E-02  0.0000E+00  0.0000E+00
         0.152  5.5682E+03  0.0000E+00  0.0000E+00  0.0000E+00  9.0000E+01  9.0000E+01  9.0000E+01  0.0000E+00  5.9373E+01

       rolling -1.1993E+06  6.5349E+02 -1.2017E+06  2.8685E+05 -1.4885E+06  0.0000E+00  3.5279E-03  0.0000E+00  0.0000E+00
      averages -1.1860E+06  3.8164E+02 -3.5165E+04 -1.5225E+06  1.4877E+06  0.0000E+00 -3.4165E-02  0.0000E+00  0.0000E+00
                5.5682E+03  0.0000E+00  0.0000E+00  0.0000E+00  9.0000E+01  9.0000E+01  9.0000E+01  0.0000E+00  3.9111E+01
 ----------------------------------------------------------------------------------------------------------------------------------
            30 -1.1993E+06  6.7746E+02 -1.2018E+06  2.9584E+05 -1.4976E+06  0.0000E+00  4.5212E-03  0.0000E+00  0.0000E+00
       0.03000 -1.1762E+06  4.8625E+02 -6.4573E+04 -1.5611E+06  1.4968E+06  0.0000E+00 -4.3699E-02  0.0000E+00  0.0000E+00
         0.217  5.5682E+03  0.0000E+00  0.0000E+00  0.0000E+00  9.0000E+01  9.0000E+01  9.0000E+01  0.0000E+00  6.8130E+01

       rolling -1.1993E+06  6.6700E+02 -1.2017E+06  2.8948E+05 -1.4912E+06  0.0000E+00  3.7143E-03  0.0000E+00  0.0000E+00
      averages -1.1831E+06  4.0973E+02 -4.3805E+04 -1.5339E+06  1.4903E+06  0.0000E+00 -3.5948E-02  0.0000E+00  0.0000E+00
                5.5682E+03  0.0000E+00  0.0000E+00  0.0000E+00  9.0000E+01  9.0000E+01  9.0000E+01  0.0000E+00  4.7683E+01
 ----------------------------------------------------------------------------------------------------------------------------------
            40 -1.1993E+06  6.9208E+02 -1.2018E+06  2.9532E+05 -1.4972E+06  0.0000E+00  5.3585E-03  0.0000E+00  0.0000E+00
       0.04000 -1.1767E+06  4.9345E+02 -6.2797E+04 -1.5589E+06  1.4963E+06  0.0000E+00 -5.1724E-02  0.0000E+00  0.0000E+00
         0.280  5.5682E+03  0.0000E+00  0.0000E+00  0.0000E+00  9.0000E+01  9.0000E+01  9.0000E+01  0.0000E+00  6.6490E+01

       rolling -1.1993E+06  6.7071E+02 -1.2018E+06  2.9109E+05 -1.4928E+06  0.0000E+00  4.0899E-03  0.0000E+00  0.0000E+00
      averages -1.1814E+06  4.3071E+02 -4.9034E+04 -1.5407E+06  1.4920E+06  0.0000E+00 -3.9552E-02  0.0000E+00  0.0000E+00
                5.5682E+03  0.0000E+00  0.0000E+00  0.0000E+00  9.0000E+01  9.0000E+01  9.0000E+01  0.0000E+00  5.2838E+01
 ----------------------------------------------------------------------------------------------------------------------------------
            50 -1.1993E+06  7.0613E+02 -1.2019E+06  2.9108E+05 -1.4930E+06  0.0000E+00  3.5055E-03  0.0000E+00  0.0000E+00
       0.05000 -1.1814E+06  4.9861E+02 -4.8852E+04 -1.5407E+06  1.4921E+06  0.0000E+00 -3.3943E-02  0.0000E+00  0.0000E+00
         0.345  5.5682E+03  0.0000E+00  0.0000E+00  0.0000E+00  9.0000E+01  9.0000E+01  9.0000E+01  0.0000E+00  5.2908E+01

       rolling -1.1993E+06  6.7883E+02 -1.2018E+06  2.9155E+05 -1.4933E+06  0.0000E+00  4.1417E-03  0.0000E+00  0.0000E+00
      averages -1.1809E+06  4.4310E+02 -5.0474E+04 -1.5427E+06  1.4925E+06  0.0000E+00 -4.0047E-02  0.0000E+00  0.0000E+00
                5.5682E+03  0.0000E+00  0.0000E+00  0.0000E+00  9.0000E+01  9.0000E+01  9.0000E+01  0.0000E+00  5.4309E+01
 ----------------------------------------------------------------------------------------------------------------------------------
            60 -1.1993E+06  6.4874E+02 -1.2017E+06  2.8818E+05 -1.4899E+06  0.0000E+00  3.3730E-03  0.0000E+00  0.0000E+00
       0.06000 -1.1848E+06  6.4582E+02 -3.9034E+04 -1.5277E+06  1.4890E+06  0.0000E+00 -3.2679E-02  0.0000E+00  0.0000E+00
         0.409  5.5682E+03  0.0000E+00  0.0000E+00  0.0000E+00  9.0000E+01  9.0000E+01  9.0000E+01  0.0000E+00  4.2867E+01

       rolling -1.1993E+06  6.7759E+02 -1.2018E+06  2.9115E+05 -1.4929E+06  0.0000E+00  3.9951E-03  0.0000E+00  0.0000E+00
      averages -1.1813E+06  4.6215E+02 -4.9124E+04 -1.5409E+06  1.4921E+06  0.0000E+00 -3.8641E-02  0.0000E+00  0.0000E+00
                5.5682E+03  0.0000E+00  0.0000E+00  0.0000E+00  9.0000E+01  9.0000E+01  9.0000E+01  0.0000E+00  5.2974E+01
 ----------------------------------------------------------------------------------------------------------------------------------
            70 -1.1993E+06  6.2048E+02 -1.2016E+06  2.8768E+05 -1.4893E+06  0.0000E+00  3.5239E-03  0.0000E+00  0.0000E+00
       0.07000 -1.1853E+06  1.2553E+03 -3.7599E+04 -1.5256E+06  1.4884E+06  0.0000E+00 -3.4079E-02  0.0000E+00  0.0000E+00
         0.474  5.5682E+03  0.0000E+00  0.0000E+00  0.0000E+00  9.0000E+01  9.0000E+01  9.0000E+01  0.0000E+00  4.1245E+01

       rolling -1.1993E+06  6.7252E+02 -1.2018E+06  2.9064E+05 -1.4924E+06  0.0000E+00  3.9343E-03  0.0000E+00  0.0000E+00
      averages -1.1819E+06  5.2918E+02 -4.7434E+04 -1.5387E+06  1.4915E+06  0.0000E+00 -3.8056E-02  0.0000E+00  0.0000E+00
                5.5682E+03  0.0000E+00  0.0000E+00  0.0000E+00  9.0000E+01  9.0000E+01  9.0000E+01  0.0000E+00  5.1279E+01
 ----------------------------------------------------------------------------------------------------------------------------------
 ----------------------------------------------------------------------------------------------------------------------------------

          step     eng_tot    temp_tot     eng_cfg     eng_src     eng_cou     eng_bnd     eng_ang     eng_dih     eng_tet
      time(ps)      eng_pv    temp_rot     vir_cfg     vir_src     vir_cou     vir_bnd     vir_ang     vir_con     vir_tet
      cpu  (s)      volume    temp_shl     eng_shl     vir_shl       alpha        beta       gamma     vir_pmf       press

 ----------------------------------------------------------------------------------------------------------------------------------
            80 -1.1993E+06  7.2133E+02 -1.2020E+06  2.8905E+05 -1.4910E+06  0.0000E+00  3.2278E-03  0.0000E+00  0.0000E+00
       0.08000 -1.1838E+06  1.9075E+03 -4.1621E+04 -1.5316E+06  1.4901E+06  0.0000E+00 -3.1259E-02  0.0000E+00  0.0000E+00
         0.537  5.5682E+03  0.0000E+00  0.0000E+00  0.0000E+00  9.0000E+01  9.0000E+01  9.0000E+01  0.0000E+00  4.5887E+01

       rolling -1.1993E+06  6.7394E+02 -1.2018E+06  2.9034E+05 -1.4921E+06  0.0000E+00  3.8487E-03  0.0000E+00  0.0000E+00
      averages -1.1823E+06  6.7108E+02 -4.6397E+04 -1.5374E+06  1.4912E+06  0.0000E+00 -3.7231E-02  0.0000E+00  0.0000E+00
                5.5682E+03  0.0000E+00  0.0000E+00  0.0000E+00  9.0000E+01  9.0000E+01  9.0000E+01  0.0000E+00  5.0269E+01
 ----------------------------------------------------------------------------------------------------------------------------------
            90 -1.1993E+06  7.6560E+02 -1.2021E+06  2.9178E+05 -1.4939E+06  0.0000E+00  4.2224E-03  0.0000E+00  0.0000E+00
       0.09000 -1.1807E+06  2.0248E+03 -5.0640E+04 -1.5435E+06  1.4930E+06  0.0000E+00 -4.0742E-02  0.0000E+00  0.0000E+00
         0.602  5.5682E+03  0.0000E+00  0.0000E+00  0.0000E+00  9.0000E+01  9.0000E+01  9.0000E+01  0.0000E+00  5.5047E+01

       rolling -1.1993E+06  6.7714E+02 -1.2018E+06  2.9039E+05 -1.4922E+06  0.0000E+00  3.8418E-03  0.0000E+00  0.0000E+00
      averages -1.1822E+06  8.1836E+02 -4.6496E+04 -1.5375E+06  1.4913E+06  0.0000E+00 -3.7159E-02  0.0000E+00  0.0000E+00
                5.5682E+03  0.0000E+00  0.0000E+00  0.0000E+00  9.0000E+01  9.0000E+01  9.0000E+01  0.0000E+00  5.0384E+01
 ----------------------------------------------------------------------------------------------------------------------------------
           100 -1.1993E+06  6.9318E+02 -1.2019E+06  2.9362E+05 -1.4955E+06  0.0000E+00  4.4471E-03  0.0000E+00  0.0000E+00
       0.10000 -1.1788E+06  1.9875E+03 -5.6801E+04 -1.5513E+06  1.4946E+06  0.0000E+00 -4.2951E-02  0.0000E+00  0.0000E+00
         0.664  5.5682E+03  0.0000E+00  0.0000E+00  0.0000E+00  9.0000E+01  9.0000E+01  9.0000E+01  0.0000E+00  6.0580E+01

       rolling -1.1993E+06  6.8246E+02 -1.2018E+06  2.9066E+05 -1.4925E+06  0.0000E+00  3.9007E-03  0.0000E+00  0.0000E+00
      averages -1.1819E+06  9.3769E+02 -4.7332E+04 -1.5387E+06  1.4916E+06  0.0000E+00 -3.7716E-02  0.0000E+00  0.0000E+00
                5.5682E+03  0.0000E+00  0.0000E+00  0.0000E+00  9.0000E+01  9.0000E+01  9.0000E+01  0.0000E+00  5.1239E+01
 ----------------------------------------------------------------------------------------------------------------------------------
           110 -1.1993E+06  6.2812E+02 -1.2016E+06  2.9297E+05 -1.4946E+06  0.0000E+00  3.9387E-03  0.0000E+00  0.0000E+00
       0.11000 -1.1797E+06  1.8053E+03 -5.4662E+04 -1.5483E+06  1.4937E+06  0.0000E+00 -3.8158E-02  0.0000E+00  0.0000E+00
         0.727  5.5682E+03  0.0000E+00  0.0000E+00  0.0000E+00  9.0000E+01  9.0000E+01  9.0000E+01  0.0000E+00  5.8025E+01

       rolling -1.1993E+06  6.9498E+02 -1.2019E+06  2.9166E+05 -1.4935E+06  0.0000E+00  4.0160E-03  0.0000E+00  0.0000E+00
      averages -1.1808E+06  1.0932E+03 -5.0556E+04 -1.5430E+06  1.4926E+06  0.0000E+00 -3.8821E-02  0.0000E+00  0.0000E+00
                5.5682E+03  0.0000E+00  0.0000E+00  0.0000E+00  9.0000E+01  9.0000E+01  9.0000E+01  0.0000E+00  5.4487E+01
 ----------------------------------------------------------------------------------------------------------------------------------
           120 -1.1993E+06  6.6029E+02 -1.2018E+06  2.9131E+05 -1.4931E+06  0.0000E+00  3.6535E-03  0.0000E+00  0.0000E+00
       0.12000 -1.1813E+06  1.3303E+03 -4.9648E+04 -1.5415E+06  1.4922E+06  0.0000E+00 -3.5314E-02  0.0000E+00  0.0000E+00
         0.792  5.5682E+03  0.0000E+00  0.0000E+00  0.0000E+00  9.0000E+01  9.0000E+01  9.0000E+01  0.0000E+00  5.3345E+01

       rolling -1.1993E+06  6.8624E+02 -1.2018E+06  2.9180E+05 -1.4936E+06  0.0000E+00  3.9849E-03  0.0000E+00  0.0000E+00
      averages -1.1807E+06  1.2094E+03 -5.1017E+04 -1.5436E+06  1.4928E+06  0.0000E+00 -3.8528E-02  0.0000E+00  0.0000E+00
                5.5682E+03  0.0000E+00  0.0000E+00  0.0000E+00  9.0000E+01  9.0000E+01  9.0000E+01  0.0000E+00  5.4875E+01
 ----------------------------------------------------------------------------------------------------------------------------------
           130 -1.1993E+06  6.6281E+02 -1.2018E+06  2.8911E+05 -1.4909E+06  0.0000E+00  3.6387E-03  0.0000E+00  0.0000E+00
       0.13000 -1.1836E+06  5.8347E+02 -4.2714E+04 -1.5321E+06  1.4900E+06  0.0000E+00 -3.5226E-02  0.0000E+00  0.0000E+00
         0.856  5.5682E+03  0.0000E+00  0.0000E+00  0.0000E+00  9.0000E+01  9.0000E+01  9.0000E+01  0.0000E+00  4.6579E+01

       rolling -1.1993E+06  6.8236E+02 -1.2018E+06  2.9134E+05 -1.4932E+06  0.0000E+00  3.9485E-03  0.0000E+00  0.0000E+00
      averages -1.1812E+06  1.2544E+03 -4.9511E+04 -1.5416E+06  1.4923E+06  0.0000E+00 -3.8175E-02  0.0000E+00  0.0000E+00
                5.5682E+03  0.0000E+00  0.0000E+00  0.0000E+00  9.0000E+01  9.0000E+01  9.0000E+01  0.0000E+00  5.3369E+01
 ----------------------------------------------------------------------------------------------------------------------------------
           140 -1.1993E+06  6.1634E+02 -1.2016E+06  2.8725E+05 -1.4889E+06  0.0000E+00  3.3698E-03  0.0000E+00  0.0000E+00
       0.14000 -1.1857E+06  3.4229E+02 -3.6746E+04 -1.5243E+06  1.4880E+06  0.0000E+00 -3.2629E-02  0.0000E+00  0.0000E+00
         0.921  5.5682E+03  0.0000E+00  0.0000E+00  0.0000E+00  9.0000E+01  9.0000E+01  9.0000E+01  0.0000E+00  4.0400E+01

       rolling -1.1993E+06  6.7582E+02 -1.2018E+06  2.9056E+05 -1.4924E+06  0.0000E+00  3.7700E-03  0.0000E+00  0.0000E+00
      averages -1.1821E+06  1.2445E+03 -4.6974E+04 -1.5382E+06  1.4915E+06  0.0000E+00 -3.6464E-02  0.0000E+00  0.0000E+00
                5.5682E+03  0.0000E+00  0.0000E+00  0.0000E+00  9.0000E+01  9.0000E+01  9.0000E+01  0.0000E+00  5.0833E+01
 ----------------------------------------------------------------------------------------------------------------------------------
           150 -1.1993E+06  6.6538E+02 -1.2018E+06  2.8870E+05 -1.4905E+06  0.0000E+00  4.0070E-03  0.0000E+00  0.0000E+00
       0.15000 -1.1842E+06  4.5860E+02 -4.0804E+04 -1.5301E+06  1.4896E+06  0.0000E+00 -3.8707E-02  0.0000E+00  0.0000E+00
         0.984  5.5682E+03  0.0000E+00  0.0000E+00  0.0000E+00  9.0000E+01  9.0000E+01  9.0000E+01  0.0000E+00  4.4726E+01

       rolling -1.1993E+06  6.7039E+02 -1.2018E+06  2.9001E+05 -1.4918E+06  0.0000E+00  3.6995E-03  0.0000E+00  0.0000E+00
      averages -1.1827E+06  1.2350E+03 -4.5183E+04 -1.5358E+06  1.4909E+06  0.0000E+00 -3.5784E-02  0.0000E+00  0.0000E+00
                5.5682E+03  0.0000E+00  0.0000E+00  0.0000E+00  9.0000E+01  9.0000E+01  9.0000E+01  0.0000E+00  4.9038E+01
 ----------------------------------------------------------------------------------------------------------------------------------
 ----------------------------------------------------------------------------------------------------------------------------------

          step     eng_tot    temp_tot     eng_cfg     eng_src     eng_cou     eng_bnd     eng_ang     eng_dih     eng_tet
      time(ps)      eng_pv    temp_rot     vir_cfg     vir_src     vir_cou     vir_bnd     vir_ang     vir_con     vir_tet
      cpu  (s)      volume    temp_shl     eng_shl     vir_shl       alpha        beta       gamma     vir_pmf       press

 ----------------------------------------------------------------------------------------------------------------------------------
           160 -1.1993E+06  6.9624E+02 -1.2019E+06  2.8943E+05 -1.4914E+06  0.0000E+00  3.8466E-03  0.0000E+00  0.0000E+00
       0.16000 -1.1834E+06  6.5424E+02 -4.3137E+04 -1.5333E+06  1.4905E+06  0.0000E+00 -3.7243E-02  0.0000E+00  0.0000E+00
         1.050  5.5682E+03  0.0000E+00  0.0000E+00  0.0000E+00  9.0000E+01  9.0000E+01  9.0000E+01  0.0000E+00  4.7228E+01

       rolling -1.1993E+06  6.7156E+02 -1.2018E+06  2.9002E+05 -1.4918E+06  0.0000E+00  3.7822E-03  0.0000E+00  0.0000E+00
      averages -1.1827E+06  1.2351E+03 -4.5193E+04 -1.5358E+06  1.4909E+06  0.0000E+00 -3.6576E-02  0.0000E+00  0.0000E+00
                5.5682E+03  0.0000E+00  0.0000E+00  0.0000E+00  9.0000E+01  9.0000E+01  9.0000E+01  0.0000E+00  4.9056E+01
 ----------------------------------------------------------------------------------------------------------------------------------
           170 -1.1993E+06  6.5832E+02 -1.2018E+06  2.9011E+05 -1.4919E+06  0.0000E+00  3.7294E-03  0.0000E+00  0.0000E+00
       0.17000 -1.1826E+06  1.0137E+03 -4.5811E+04 -1.5365E+06  1.4910E+06  0.0000E+00 -3.6134E-02  0.0000E+00  0.0000E+00
         1.115  5.5682E+03  0.0000E+00  0.0000E+00  0.0000E+00  9.0000E+01  9.0000E+01  9.0000E+01  0.0000E+00  4.9575E+01

       rolling -1.1993E+06  6.7342E+02 -1.2018E+06  2.9021E+05 -1.4920E+06  0.0000E+00  3.7878E-03  0.0000E+00  0.0000E+00
      averages -1.1825E+06  1.2253E+03 -4.5866E+04 -1.5367E+06  1.4911E+06  0.0000E+00 -3.6635E-02  0.0000E+00  0.0000E+00
                5.5682E+03  0.0000E+00  0.0000E+00  0.0000E+00  9.0000E+01  9.0000E+01  9.0000E+01  0.0000E+00  4.9730E+01
 ----------------------------------------------------------------------------------------------------------------------------------
           180 -1.1993E+06  6.4093E+02 -1.2017E+06  2.9083E+05 -1.4926E+06  0.0000E+00  4.5998E-03  0.0000E+00  0.0000E+00
       0.18000 -1.1818E+06  1.5639E+03 -4.8230E+04 -1.5397E+06  1.4917E+06  0.0000E+00 -4.4499E-02  0.0000E+00  0.0000E+00
         1.178  5.5682E+03  0.0000E+00  0.0000E+00  0.0000E+00  9.0000E+01  9.0000E+01  9.0000E+01  0.0000E+00  5.1811E+01

       rolling -1.1993E+06  6.7079E+02 -1.2018E+06  2.9046E+05 -1.4923E+06  0.0000E+00  3.8956E-03  0.0000E+00  0.0000E+00
      averages -1.1822E+06  1.1890E+03 -4.6712E+04 -1.5378E+06  1.4914E+06  0.0000E+00 -3.7677E-02  0.0000E+00  0.0000E+00
                5.5682E+03  0.0000E+00  0.0000E+00  0.0000E+00  9.0000E+01  9.0000E+01  9.0000E+01  0.0000E+00  5.0542E+01
 ----------------------------------------------------------------------------------------------------------------------------------
           190 -1.1993E+06  6.3103E+02 -1.2017E+06  2.9001E+05 -1.4917E+06  0.0000E+00  3.3997E-03  0.0000E+00  0.0000E+00
       0.19000 -1.1828E+06  2.3715E+03 -4.5316E+04 -1.5360E+06  1.4909E+06  0.0000E+00 -3.2953E-02  0.0000E+00  0.0000E+00
         1.241  5.5682E+03  0.0000E+00  0.0000E+00  0.0000E+00  9.0000E+01  9.0000E+01  9.0000E+01  0.0000E+00  4.8862E+01

       rolling -1.1993E+06  6.6440E+02 -1.2018E+06  2.9045E+05 -1.4922E+06  0.0000E+00  3.9152E-03  0.0000E+00  0.0000E+00
      averages -1.1822E+06  1.1887E+03 -4.6739E+04 -1.5378E+06  1.4914E+06  0.0000E+00 -3.7874E-02  0.0000E+00  0.0000E+00
                5.5682E+03  0.0000E+00  0.0000E+00  0.0000E+00  9.0000E+01  9.0000E+01  9.0000E+01  0.0000E+00  5.0524E+01
 ----------------------------------------------------------------------------------------------------------------------------------
           200 -1.1993E+06  6.8294E+02 -1.2019E+06  2.8928E+05 -1.4912E+06  0.0000E+00  3.6182E-03  0.0000E+00  0.0000E+00
       0.20000 -1.1837E+06  2.8444E+03 -4.2472E+04 -1.5327E+06  1.4903E+06  0.0000E+00 -3.5045E-02  0.0000E+00  0.0000E+00
         1.306  5.5682E+03  0.0000E+00  0.0000E+00  0.0000E+00  9.0000E+01  9.0000E+01  9.0000E+01  0.0000E+00  4.6428E+01

       rolling -1.1993E+06  6.5728E+02 -1.2018E+06  2.9007E+05 -1.4918E+06  0.0000E+00  3.8063E-03  0.0000E+00  0.0000E+00
      averages -1.1827E+06  1.2565E+03 -4.5539E+04 -1.5362E+06  1.4910E+06  0.0000E+00 -3.6842E-02  0.0000E+00  0.0000E+00
                5.5682E+03  0.0000E+00  0.0000E+00  0.0000E+00  9.0000E+01  9.0000E+01  9.0000E+01  0.0000E+00  4.9295E+01
 ----------------------------------------------------------------------------------------------------------------------------------
           210 -1.1993E+06  7.0540E+02 -1.2020E+06  2.8857E+05 -1.4906E+06  0.0000E+00  3.8894E-03  0.0000E+00  0.0000E+00
       0.21000 -1.1845E+06  2.7659E+03 -3.9906E+04 -1.5295E+06  1.4897E+06  0.0000E+00 -3.7522E-02  0.0000E+00  0.0000E+00
         1.372  5.5682E+03  0.0000E+00  0.0000E+00  0.0000E+00  9.0000E+01  9.0000E+01  9.0000E+01  0.0000E+00  4.4072E+01

       rolling -1.1993E+06  6.5919E+02 -1.2018E+06  2.8965E+05 -1.4914E+06  0.0000E+00  3.7811E-03  0.0000E+00  0.0000E+00
      averages -1.1831E+06  1.3493E+03 -4.4117E+04 -1.5344E+06  1.4906E+06  0.0000E+00 -3.6592E-02  0.0000E+00  0.0000E+00
                5.5682E+03  0.0000E+00  0.0000E+00  0.0000E+00  9.0000E+01  9.0000E+01  9.0000E+01  0.0000E+00  4.7911E+01
 ----------------------------------------------------------------------------------------------------------------------------------
           220 -1.1993E+06  6.5049E+02 -1.2018E+06  2.8771E+05 -1.4895E+06  0.0000E+00  3.1449E-03  0.0000E+00  0.0000E+00
       0.22000 -1.1855E+06  2.4038E+03 -3.7433E+04 -1.5260E+06  1.4887E+06  0.0000E+00 -3.0482E-02  0.0000E+00  0.0000E+00
         1.435  5.5682E+03  0.0000E+00  0.0000E+00  0.0000E+00  9.0000E+01  9.0000E+01  9.0000E+01  0.0000E+00  4.1266E+01

       rolling -1.1993E+06  6.5994E+02 -1.2018E+06  2.8924E+05 -1.4910E+06  0.0000E+00  3.7511E-03  0.0000E+00  0.0000E+00
      averages -1.1836E+06  1.4498E+03 -4.2746E+04 -1.5326E+06  1.4902E+06  0.0000E+00 -3.6295E-02  0.0000E+00  0.0000E+00
                5.5682E+03  0.0000E+00  0.0000E+00  0.0000E+00  9.0000E+01  9.0000E+01  9.0000E+01  0.0000E+00  4.6569E+01
 ----------------------------------------------------------------------------------------------------------------------------------
           230 -1.1993E+06  6.7565E+02 -1.2019E+06  2.9024E+05 -1.4922E+06  0.0000E+00  3.9497E-03  0.0000E+00  0.0000E+00
       0.23000 -1.1828E+06  1.9431E+03 -4.5275E+04 -1.5364E+06  1.4913E+06  0.0000E+00 -3.8210E-02  0.0000E+00  0.0000E+00
         1.500  5.5682E+03  0.0000E+00  0.0000E+00  0.0000E+00  9.0000E+01  9.0000E+01  9.0000E+01  0.0000E+00  4.9148E+01

       rolling -1.1993E+06  6.6174E+02 -1.2018E+06  2.8913E+05 -1.4910E+06  0.0000E+00  3.7285E-03  0.0000E+00  0.0000E+00
      averages -1.1838E+06  1.5740E+03 -4.2287E+04 -1.5321E+06  1.4901E+06  0.0000E+00 -3.6085E-02  0.0000E+00  0.0000E+00
                5.5682E+03  0.0000E+00  0.0000E+00  0.0000E+00  9.0000E+01  9.0000E+01  9.0000E+01  0.0000E+00  4.6128E+01
 ----------------------------------------------------------------------------------------------------------------------------------
 ----------------------------------------------------------------------------------------------------------------------------------

          step     eng_tot    temp_tot     eng_cfg     eng_src     eng_cou     eng_bnd     eng_ang     eng_dih     eng_tet
      time(ps)      eng_pv    temp_rot     vir_cfg     vir_src     vir_cou     vir_bnd     vir_ang     vir_con     vir_tet
      cpu  (s)      volume    temp_shl     eng_shl     vir_shl       alpha        beta       gamma     vir_pmf       press

 ----------------------------------------------------------------------------------------------------------------------------------
           240 -1.1993E+06  6.7050E+02 -1.2019E+06  2.9140E+05 -1.4933E+06  0.0000E+00  4.0170E-03  0.0000E+00  0.0000E+00
       0.24000 -1.1813E+06  1.3115E+03 -4.9813E+04 -1.5420E+06  1.4924E+06  0.0000E+00 -3.8801E-02  0.0000E+00  0.0000E+00
         1.563  5.5682E+03  0.0000E+00  0.0000E+00  0.0000E+00  9.0000E+01  9.0000E+01  9.0000E+01  0.0000E+00  5.3579E+01

       rolling -1.1993E+06  6.6451E+02 -1.2018E+06  2.8944E+05 -1.4913E+06  0.0000E+00  3.7981E-03  0.0000E+00  0.0000E+00
      averages -1.1835E+06  1.6956E+03 -4.3220E+04 -1.5334E+06  1.4904E+06  0.0000E+00 -3.6747E-02  0.0000E+00  0.0000E+00
                5.5682E+03  0.0000E+00  0.0000E+00  0.0000E+00  9.0000E+01  9.0000E+01  9.0000E+01  0.0000E+00  4.7060E+01
 ----------------------------------------------------------------------------------------------------------------------------------
           250 -1.1993E+06  6.3153E+02 -1.2018E+06  2.9220E+05 -1.4940E+06  0.0000E+00  4.0730E-03  0.0000E+00  0.0000E+00
       0.25000 -1.1804E+06  8.2258E+02 -5.2777E+04 -1.5456E+06  1.4931E+06  0.0000E+00 -3.9439E-02  0.0000E+00  0.0000E+00
         1.628  5.5682E+03  0.0000E+00  0.0000E+00  0.0000E+00  9.0000E+01  9.0000E+01  9.0000E+01  0.0000E+00  5.6223E+01

       rolling -1.1993E+06  6.6374E+02 -1.2018E+06  2.8983E+05 -1.4917E+06  0.0000E+00  3.8279E-03  0.0000E+00  0.0000E+00
      averages -1.1830E+06  1.7563E+03 -4.4508E+04 -1.5351E+06  1.4908E+06  0.0000E+00 -3.7038E-02  0.0000E+00  0.0000E+00
                5.5682E+03  0.0000E+00  0.0000E+00  0.0000E+00  9.0000E+01  9.0000E+01  9.0000E+01  0.0000E+00  4.8317E+01
 ----------------------------------------------------------------------------------------------------------------------------------
           260 -1.1993E+06  6.0044E+02 -1.2017E+06  2.9261E+05 -1.4943E+06  0.0000E+00  4.5776E-03  0.0000E+00  0.0000E+00
       0.26000 -1.1801E+06  7.8795E+02 -5.3851E+04 -1.5470E+06  1.4934E+06  0.0000E+00 -4.4145E-02  0.0000E+00  0.0000E+00
         1.692  5.5682E+03  0.0000E+00  0.0000E+00  0.0000E+00  9.0000E+01  9.0000E+01  9.0000E+01  0.0000E+00  5.7058E+01

       rolling -1.1993E+06  6.5925E+02 -1.2018E+06  2.9016E+05 -1.4920E+06  0.0000E+00  3.8621E-03  0.0000E+00  0.0000E+00
      averages -1.1827E+06  1.7778E+03 -4.5629E+04 -1.5365E+06  1.4911E+06  0.0000E+00 -3.7366E-02  0.0000E+00  0.0000E+00
                5.5682E+03  0.0000E+00  0.0000E+00  0.0000E+00  9.0000E+01  9.0000E+01  9.0000E+01  0.0000E+00  4.9383E+01
 ----------------------------------------------------------------------------------------------------------------------------------
           270 -1.1993E+06  6.5678E+02 -1.2019E+06  2.9015E+05 -1.4921E+06  0.0000E+00  3.7706E-03  0.0000E+00  0.0000E+00
       0.27000 -1.1827E+06  9.2435E+02 -4.5851E+04 -1.5367E+06  1.4912E+06  0.0000E+00 -3.6477E-02  0.0000E+00  0.0000E+00
         1.755  5.5682E+03  0.0000E+00  0.0000E+00  0.0000E+00  9.0000E+01  9.0000E+01  9.0000E+01  0.0000E+00  4.9605E+01

       rolling -1.1993E+06  6.5650E+02 -1.2018E+06  2.9033E+05 -1.4922E+06  0.0000E+00  3.9168E-03  0.0000E+00  0.0000E+00
      averages -1.1825E+06  1.7813E+03 -4.6195E+04 -1.5373E+06  1.4913E+06  0.0000E+00 -3.7881E-02  0.0000E+00  0.0000E+00
                5.5682E+03  0.0000E+00  0.0000E+00  0.0000E+00  9.0000E+01  9.0000E+01  9.0000E+01  0.0000E+00  4.9920E+01
 ----------------------------------------------------------------------------------------------------------------------------------
           280 -1.1993E+06  6.6332E+02 -1.2020E+06  2.8845E+05 -1.4904E+06  0.0000E+00  3.5534E-03  0.0000E+00  0.0000E+00
       0.28000 -1.1846E+06  8.7377E+02 -4.0112E+04 -1.5294E+06  1.4895E+06  0.0000E+00 -3.4446E-02  0.0000E+00  0.0000E+00
         1.821  5.5682E+03  0.0000E+00  0.0000E+00  0.0000E+00  9.0000E+01  9.0000E+01  9.0000E+01  0.0000E+00  4.4022E+01

       rolling -1.1993E+06  6.5566E+02 -1.2019E+06  2.9018E+05 -1.4920E+06  0.0000E+00  3.8380E-03  0.0000E+00  0.0000E+00
      averages -1.1827E+06  1.7422E+03 -4.5687E+04 -1.5366E+06  1.4912E+06  0.0000E+00 -3.7124E-02  0.0000E+00  0.0000E+00
                5.5682E+03  0.0000E+00  0.0000E+00  0.0000E+00  9.0000E+01  9.0000E+01  9.0000E+01  0.0000E+00  4.9417E+01
 ----------------------------------------------------------------------------------------------------------------------------------
           290 -1.1993E+06  6.4620E+02 -1.2019E+06  2.8807E+05 -1.4900E+06  0.0000E+00  3.8063E-03  0.0000E+00  0.0000E+00
       0.29000 -1.1852E+06  8.6438E+02 -3.8584E+04 -1.5274E+06  1.4891E+06  0.0000E+00 -3.6767E-02  0.0000E+00  0.0000E+00
         1.884  5.5682E+03  0.0000E+00  0.0000E+00  0.0000E+00  9.0000E+01  9.0000E+01  9.0000E+01  0.0000E+00  4.2402E+01

       rolling -1.1993E+06  6.5441E+02 -1.2019E+06  2.8995E+05 -1.4918E+06  0.0000E+00  3.8164E-03  0.0000E+00  0.0000E+00
      averages -1.1830E+06  1.6280E+03 -4.4897E+04 -1.5356E+06  1.4909E+06  0.0000E+00 -3.6912E-02  0.0000E+00  0.0000E+00
                5.5682E+03  0.0000E+00  0.0000E+00  0.0000E+00  9.0000E+01  9.0000E+01  9.0000E+01  0.0000E+00  4.8636E+01
 ----------------------------------------------------------------------------------------------------------------------------------
           300 -1.1993E+06  6.3267E+02 -1.2019E+06  2.8795E+05 -1.4898E+06  0.0000E+00  3.3111E-03  0.0000E+00  0.0000E+00
       0.30000 -1.1854E+06  1.1497E+03 -3.8064E+04 -1.5268E+06  1.4890E+06  0.0000E+00 -3.2055E-02  0.0000E+00  0.0000E+00
         1.950  5.5682E+03  0.0000E+00  0.0000E+00  0.0000E+00  9.0000E+01  9.0000E+01  9.0000E+01  0.0000E+00  4.1789E+01

       rolling -1.1993E+06  6.5380E+02 -1.2019E+06  2.8981E+05 -1.4917E+06  0.0000E+00  3.8362E-03  0.0000E+00  0.0000E+00
      averages -1.1832E+06  1.4582E+03 -4.4388E+04 -1.5350E+06  1.4908E+06  0.0000E+00 -3.7094E-02  0.0000E+00  0.0000E+00
                5.5682E+03  0.0000E+00  0.0000E+00  0.0000E+00  9.0000E+01  9.0000E+01  9.0000E+01  0.0000E+00  4.8136E+01
 ----------------------------------------------------------------------------------------------------------------------------------
           310 -1.1993E+06  6.4291E+02 -1.2019E+06  2.8971E+05 -1.4916E+06  0.0000E+00  3.5226E-03  0.0000E+00  0.0000E+00
       0.31000 -1.1834E+06  1.6662E+03 -4.3965E+04 -1.5345E+06  1.4908E+06  0.0000E+00 -3.4171E-02  0.0000E+00  0.0000E+00
         2.014  5.5682E+03  0.0000E+00  0.0000E+00  0.0000E+00  9.0000E+01  9.0000E+01  9.0000E+01  0.0000E+00  4.7638E+01

       rolling -1.1993E+06  6.4729E+02 -1.2019E+06  2.8978E+05 -1.4917E+06  0.0000E+00  3.7730E-03  0.0000E+00  0.0000E+00
      averages -1.1832E+06  1.3180E+03 -4.4327E+04 -1.5349E+06  1.4908E+06  0.0000E+00 -3.6494E-02  0.0000E+00  0.0000E+00
                5.5682E+03  0.0000E+00  0.0000E+00  0.0000E+00  9.0000E+01  9.0000E+01  9.0000E+01  0.0000E+00  4.8033E+01
 ----------------------------------------------------------------------------------------------------------------------------------
 ----------------------------------------------------------------------------------------------------------------------------------

          step     eng_tot    temp_tot     eng_cfg     eng_src     eng_cou     eng_bnd     eng_ang     eng_dih     eng_tet
      time(ps)      eng_pv    temp_rot     vir_cfg     vir_src     vir_cou     vir_bnd     vir_ang     vir_con     vir_tet
      cpu  (s)      volume    temp_shl     eng_shl     vir_shl       alpha        beta       gamma     vir_pmf       press

 ----------------------------------------------------------------------------------------------------------------------------------
           320 -1.1993E+06  6.3444E+02 -1.2019E+06  2.9223E+05 -1.4941E+06  0.0000E+00  4.4660E-03  0.0000E+00  0.0000E+00
       0.32000 -1.1807E+06  2.0798E+03 -5.2231E+04 -1.5454E+06  1.4933E+06  0.0000E+00 -4.3040E-02  0.0000E+00  0.0000E+00
         2.077  5.5682E+03  0.0000E+00  0.0000E+00  0.0000E+00  9.0000E+01  9.0000E+01  9.0000E+01  0.0000E+00  5.5678E+01

       rolling -1.1993E+06  6.4410E+02 -1.2019E+06  2.9011E+05 -1.4920E+06  0.0000E+00  3.8445E-03  0.0000E+00  0.0000E+00
      averages -1.1829E+06  1.2506E+03 -4.5408E+04 -1.5363E+06  1.4911E+06  0.0000E+00 -3.7184E-02  0.0000E+00  0.0000E+00
                5.5682E+03  0.0000E+00  0.0000E+00  0.0000E+00  9.0000E+01  9.0000E+01  9.0000E+01  0.0000E+00  4.9073E+01
 ----------------------------------------------------------------------------------------------------------------------------------
           330 -1.1993E+06  6.1235E+02 -1.2019E+06  2.9301E+05 -1.4949E+06  0.0000E+00  3.9903E-03  0.0000E+00  0.0000E+00
       0.33000 -1.1799E+06  2.3785E+03 -5.4855E+04 -1.5488E+06  1.4940E+06  0.0000E+00 -3.8612E-02  0.0000E+00  0.0000E+00
         2.142  5.5682E+03  0.0000E+00  0.0000E+00  0.0000E+00  9.0000E+01  9.0000E+01  9.0000E+01  0.0000E+00  5.8089E+01

       rolling -1.1993E+06  6.4101E+02 -1.2019E+06  2.9048E+05 -1.4924E+06  0.0000E+00  3.9180E-03  0.0000E+00  0.0000E+00
      averages -1.1825E+06  1.2597E+03 -4.6660E+04 -1.5379E+06  1.4915E+06  0.0000E+00 -3.7882E-02  0.0000E+00  0.0000E+00
                5.5682E+03  0.0000E+00  0.0000E+00  0.0000E+00  9.0000E+01  9.0000E+01  9.0000E+01  0.0000E+00  5.0279E+01
 ----------------------------------------------------------------------------------------------------------------------------------
           340 -1.1993E+06  6.5383E+02 -1.2020E+06  2.9249E+05 -1.4945E+06  0.0000E+00  4.2133E-03  0.0000E+00  0.0000E+00
       0.34000 -1.1804E+06  2.6225E+03 -5.3136E+04 -1.5467E+06  1.4936E+06  0.0000E+00 -4.0755E-02  0.0000E+00  0.0000E+00
         2.205  5.5682E+03  0.0000E+00  0.0000E+00  0.0000E+00  9.0000E+01  9.0000E+01  9.0000E+01  0.0000E+00  5.6690E+01

       rolling -1.1993E+06  6.4057E+02 -1.2019E+06  2.9064E+05 -1.4925E+06  0.0000E+00  3.9093E-03  0.0000E+00  0.0000E+00
      averages -1.1823E+06  1.3508E+03 -4.7195E+04 -1.5386E+06  1.4917E+06  0.0000E+00 -3.7807E-02  0.0000E+00  0.0000E+00
                5.5682E+03  0.0000E+00  0.0000E+00  0.0000E+00  9.0000E+01  9.0000E+01  9.0000E+01  0.0000E+00  5.0799E+01
 ----------------------------------------------------------------------------------------------------------------------------------
           350 -1.1993E+06  6.4340E+02 -1.2020E+06  2.9080E+05 -1.4928E+06  0.0000E+00  3.9921E-03  0.0000E+00  0.0000E+00
       0.35000 -1.1824E+06  2.6634E+03 -4.7339E+04 -1.5392E+06  1.4919E+06  0.0000E+00 -3.8597E-02  0.0000E+00  0.0000E+00
         2.271  5.5682E+03  0.0000E+00  0.0000E+00  0.0000E+00  9.0000E+01  9.0000E+01  9.0000E+01  0.0000E+00  5.0928E+01

       rolling -1.1993E+06  6.3740E+02 -1.2019E+06  2.9065E+05 -1.4925E+06  0.0000E+00  3.9380E-03  0.0000E+00  0.0000E+00
      averages -1.1824E+06  1.5172E+03 -4.7159E+04 -1.5386E+06  1.4917E+06  0.0000E+00 -3.8080E-02  0.0000E+00  0.0000E+00
                5.5682E+03  0.0000E+00  0.0000E+00  0.0000E+00  9.0000E+01  9.0000E+01  9.0000E+01  0.0000E+00  5.0737E+01
 ----------------------------------------------------------------------------------------------------------------------------------
           360 -1.1993E+06  6.1632E+02 -1.2019E+06  2.8823E+05 -1.4902E+06  0.0000E+00  3.4824E-03  0.0000E+00  0.0000E+00
       0.36000 -1.1852E+06  2.3340E+03 -3.9181E+04 -1.5283E+06  1.4893E+06  0.0000E+00 -3.3718E-02  0.0000E+00  0.0000E+00
         2.334  5.5682E+03  0.0000E+00  0.0000E+00  0.0000E+00  9.0000E+01  9.0000E+01  9.0000E+01  0.0000E+00  4.2741E+01

       rolling -1.1993E+06  6.3635E+02 -1.2019E+06  2.9032E+05 -1.4922E+06  0.0000E+00  3.8551E-03  0.0000E+00  0.0000E+00
      averages -1.1828E+06  1.6917E+03 -4.6039E+04 -1.5372E+06  1.4914E+06  0.0000E+00 -3.7286E-02  0.0000E+00  0.0000E+00
                5.5682E+03  0.0000E+00  0.0000E+00  0.0000E+00  9.0000E+01  9.0000E+01  9.0000E+01  0.0000E+00  4.9626E+01
 ----------------------------------------------------------------------------------------------------------------------------------
           370 -1.1993E+06  6.0776E+02 -1.2019E+06  2.8879E+05 -1.4907E+06  0.0000E+00  3.9752E-03  0.0000E+00  0.0000E+00
       0.37000 -1.1848E+06  1.6963E+03 -4.0561E+04 -1.5302E+06  1.4898E+06  0.0000E+00 -3.8358E-02  0.0000E+00  0.0000E+00
         2.398  5.5682E+03  0.0000E+00  0.0000E+00  0.0000E+00  9.0000E+01  9.0000E+01  9.0000E+01  0.0000E+00  4.4050E+01

       rolling -1.1993E+06  6.3469E+02 -1.2019E+06  2.9003E+05 -1.4919E+06  0.0000E+00  3.8128E-03  0.0000E+00  0.0000E+00
      averages -1.1831E+06  1.8040E+03 -4.5004E+04 -1.5359E+06  1.4911E+06  0.0000E+00 -3.6881E-02  0.0000E+00  0.0000E+00
                5.5682E+03  0.0000E+00  0.0000E+00  0.0000E+00  9.0000E+01  9.0000E+01  9.0000E+01  0.0000E+00  4.8596E+01
 ----------------------------------------------------------------------------------------------------------------------------------
           380 -1.1993E+06  6.4761E+02 -1.2021E+06  2.8861E+05 -1.4907E+06  0.0000E+00  3.4938E-03  0.0000E+00  0.0000E+00
       0.38000 -1.1848E+06  1.1640E+03 -4.0167E+04 -1.5298E+06  1.4898E+06  0.0000E+00 -3.3846E-02  0.0000E+00  0.0000E+00
         2.463  5.5682E+03  0.0000E+00  0.0000E+00  0.0000E+00  9.0000E+01  9.0000E+01  9.0000E+01  0.0000E+00  4.3958E+01

       rolling -1.1993E+06  6.3433E+02 -1.2019E+06  2.8999E+05 -1.4919E+06  0.0000E+00  3.8370E-03  0.0000E+00  0.0000E+00
      averages -1.1832E+06  1.8515E+03 -4.4803E+04 -1.5357E+06  1.4911E+06  0.0000E+00 -3.7104E-02  0.0000E+00  0.0000E+00
                5.5682E+03  0.0000E+00  0.0000E+00  0.0000E+00  9.0000E+01  9.0000E+01  9.0000E+01  0.0000E+00  4.8395E+01
 ----------------------------------------------------------------------------------------------------------------------------------
           390 -1.1993E+06  5.7800E+02 -1.2018E+06  2.8984E+05 -1.4917E+06  0.0000E+00  3.6945E-03  0.0000E+00  0.0000E+00
       0.39000 -1.1836E+06  7.9968E+02 -4.4335E+04 -1.5350E+06  1.4908E+06  0.0000E+00 -3.5770E-02  0.0000E+00  0.0000E+00
         2.527  5.5682E+03  0.0000E+00  0.0000E+00  0.0000E+00  9.0000E+01  9.0000E+01  9.0000E+01  0.0000E+00  4.7564E+01

       rolling -1.1993E+06  6.3250E+02 -1.2020E+06  2.9004E+05 -1.4920E+06  0.0000E+00  3.8077E-03  0.0000E+00  0.0000E+00
      averages -1.1832E+06  1.8618E+03 -4.4992E+04 -1.5360E+06  1.4911E+06  0.0000E+00 -3.6829E-02  0.0000E+00  0.0000E+00
                5.5682E+03  0.0000E+00  0.0000E+00  0.0000E+00  9.0000E+01  9.0000E+01  9.0000E+01  0.0000E+00  4.8567E+01
 ----------------------------------------------------------------------------------------------------------------------------------
 ----------------------------------------------------------------------------------------------------------------------------------

          step     eng_tot    temp_tot     eng_cfg     eng_src     eng_cou     eng_bnd     eng_ang     eng_dih     eng_tet
      time(ps)      eng_pv    temp_rot     vir_cfg     vir_src     vir_cou     vir_bnd     vir_ang     vir_con     vir_tet
      cpu  (s)      volume    temp_shl     eng_shl     vir_shl       alpha        beta       gamma     vir_pmf       press

 ----------------------------------------------------------------------------------------------------------------------------------
           400 -1.1993E+06  6.2709E+02 -1.2020E+06  2.9166E+05 -1.4937E+06  0.0000E+00  4.3087E-03  0.0000E+00  0.0000E+00
       0.40000 -1.1815E+06  5.2521E+02 -5.0294E+04 -1.5429E+06  1.4928E+06  0.0000E+00 -4.1580E-02  0.0000E+00  0.0000E+00
         2.592  5.5682E+03  0.0000E+00  0.0000E+00  0.0000E+00  9.0000E+01  9.0000E+01  9.0000E+01  0.0000E+00  5.3764E+01

       rolling -1.1993E+06  6.2797E+02 -1.2020E+06  2.9036E+05 -1.4923E+06  0.0000E+00  3.8656E-03  0.0000E+00  0.0000E+00
      averages -1.1829E+06  1.8269E+03 -4.6017E+04 -1.5373E+06  1.4914E+06  0.0000E+00 -3.7386E-02  0.0000E+00  0.0000E+00
                5.5682E+03  0.0000E+00  0.0000E+00  0.0000E+00  9.0000E+01  9.0000E+01  9.0000E+01  0.0000E+00  4.9542E+01
 ----------------------------------------------------------------------------------------------------------------------------------
           410 -1.1993E+06  6.1264E+02 -1.2020E+06  2.9154E+05 -1.4936E+06  0.0000E+00  3.7596E-03  0.0000E+00  0.0000E+00
       0.41000 -1.1815E+06  3.0794E+02 -5.0442E+04 -1.5428E+06  1.4927E+06  0.0000E+00 -3.6454E-02  0.0000E+00  0.0000E+00
         2.655  5.5682E+03  0.0000E+00  0.0000E+00  0.0000E+00  9.0000E+01  9.0000E+01  9.0000E+01  0.0000E+00  5.3812E+01

       rolling -1.1993E+06  6.2569E+02 -1.2020E+06  2.9066E+05 -1.4926E+06  0.0000E+00  3.9367E-03  0.0000E+00  0.0000E+00
      averages -1.1825E+06  1.7238E+03 -4.7039E+04 -1.5387E+06  1.4918E+06  0.0000E+00 -3.8065E-02  0.0000E+00  0.0000E+00
                5.5682E+03  0.0000E+00  0.0000E+00  0.0000E+00  9.0000E+01  9.0000E+01  9.0000E+01  0.0000E+00  5.0531E+01
 ----------------------------------------------------------------------------------------------------------------------------------
           420 -1.1993E+06  6.0124E+02 -1.2020E+06  2.9171E+05 -1.4937E+06  0.0000E+00  3.9472E-03  0.0000E+00  0.0000E+00
       0.42000 -1.1814E+06  2.2751E+02 -5.1085E+04 -1.5435E+06  1.4928E+06  0.0000E+00 -3.8200E-02  0.0000E+00  0.0000E+00
         2.719  5.5682E+03  0.0000E+00  0.0000E+00  0.0000E+00  9.0000E+01  9.0000E+01  9.0000E+01  0.0000E+00  5.4364E+01

       rolling -1.1993E+06  6.2099E+02 -1.2020E+06  2.9071E+05 -1.4927E+06  0.0000E+00  3.9043E-03  0.0000E+00  0.0000E+00
      averages -1.1825E+06  1.5577E+03 -4.7252E+04 -1.5389E+06  1.4918E+06  0.0000E+00 -3.7763E-02  0.0000E+00  0.0000E+00
                5.5682E+03  0.0000E+00  0.0000E+00  0.0000E+00  9.0000E+01  9.0000E+01  9.0000E+01  0.0000E+00  5.0711E+01
 ----------------------------------------------------------------------------------------------------------------------------------
           430 -1.1993E+06  6.3084E+02 -1.2021E+06  2.9123E+05 -1.4934E+06  0.0000E+00  3.7459E-03  0.0000E+00  0.0000E+00
       0.43000 -1.1819E+06  3.7392E+02 -4.9263E+04 -1.5413E+06  1.4925E+06  0.0000E+00 -3.6201E-02  0.0000E+00  0.0000E+00
         2.784  5.5682E+03  0.0000E+00  0.0000E+00  0.0000E+00  9.0000E+01  9.0000E+01  9.0000E+01  0.0000E+00  5.2783E+01

       rolling -1.1993E+06  6.1657E+02 -1.2020E+06  2.9060E+05 -1.4926E+06  0.0000E+00  3.8791E-03  0.0000E+00  0.0000E+00
      averages -1.1826E+06  1.3622E+03 -4.6921E+04 -1.5384E+06  1.4917E+06  0.0000E+00 -3.7523E-02  0.0000E+00  0.0000E+00
                5.5682E+03  0.0000E+00  0.0000E+00  0.0000E+00  9.0000E+01  9.0000E+01  9.0000E+01  0.0000E+00  5.0360E+01
 ----------------------------------------------------------------------------------------------------------------------------------
           440 -1.1993E+06  5.8533E+02 -1.2020E+06  2.8977E+05 -1.4917E+06  0.0000E+00  3.2497E-03  0.0000E+00  0.0000E+00
       0.44000 -1.1837E+06  4.6414E+02 -4.4343E+04 -1.5349E+06  1.4909E+06  0.0000E+00 -3.1481E-02  0.0000E+00  0.0000E+00
         2.847  5.5682E+03  0.0000E+00  0.0000E+00  0.0000E+00  9.0000E+01  9.0000E+01  9.0000E+01  0.0000E+00  4.7632E+01

       rolling -1.1993E+06  6.1654E+02 -1.2020E+06  2.9035E+05 -1.4923E+06  0.0000E+00  3.8112E-03  0.0000E+00  0.0000E+00
      averages -1.1829E+06  1.1545E+03 -4.6135E+04 -1.5374E+06  1.4915E+06  0.0000E+00 -3.6865E-02  0.0000E+00  0.0000E+00
                5.5682E+03  0.0000E+00  0.0000E+00  0.0000E+00  9.0000E+01  9.0000E+01  9.0000E+01  0.0000E+00  4.9594E+01
 ----------------------------------------------------------------------------------------------------------------------------------
           450 -1.1993E+06  5.9702E+02 -1.2020E+06  2.8944E+05 -1.4915E+06  0.0000E+00  3.8128E-03  0.0000E+00  0.0000E+00
       0.45000 -1.1841E+06  4.6188E+02 -4.3237E+04 -1.5335E+06  1.4906E+06  0.0000E+00 -3.6857E-02  0.0000E+00  0.0000E+00
         2.913  5.5682E+03  0.0000E+00  0.0000E+00  0.0000E+00  9.0000E+01  9.0000E+01  9.0000E+01  0.0000E+00  4.6629E+01

       rolling -1.1993E+06  6.1434E+02 -1.2020E+06  2.9011E+05 -1.4921E+06  0.0000E+00  3.7398E-03  0.0000E+00  0.0000E+00
      averages -1.1832E+06  9.3305E+02 -4.5366E+04 -1.5363E+06  1.4912E+06  0.0000E+00 -3.6180E-02  0.0000E+00  0.0000E+00
                5.5682E+03  0.0000E+00  0.0000E+00  0.0000E+00  9.0000E+01  9.0000E+01  9.0000E+01  0.0000E+00  4.8829E+01
 ----------------------------------------------------------------------------------------------------------------------------------
           460 -1.1993E+06  5.9003E+02 -1.2020E+06  2.8926E+05 -1.4913E+06  0.0000E+00  3.7668E-03  0.0000E+00  0.0000E+00
       0.46000 -1.1843E+06  6.2173E+02 -4.2694E+04 -1.5328E+06  1.4904E+06  0.0000E+00 -3.6325E-02  0.0000E+00  0.0000E+00
         2.976  5.5682E+03  0.0000E+00  0.0000E+00  0.0000E+00  9.0000E+01  9.0000E+01  9.0000E+01  0.0000E+00  4.6044E+01

       rolling -1.1993E+06  6.0992E+02 -1.2020E+06  2.9013E+05 -1.4921E+06  0.0000E+00  3.7701E-03  0.0000E+00  0.0000E+00
      averages -1.1832E+06  7.3446E+02 -4.5455E+04 -1.5364E+06  1.4913E+06  0.0000E+00 -3.6462E-02  0.0000E+00  0.0000E+00
                5.5682E+03  0.0000E+00  0.0000E+00  0.0000E+00  9.0000E+01  9.0000E+01  9.0000E+01  0.0000E+00  4.8890E+01
 ----------------------------------------------------------------------------------------------------------------------------------
           470 -1.1993E+06  5.8239E+02 -1.2020E+06  2.8924E+05 -1.4913E+06  0.0000E+00  3.2481E-03  0.0000E+00  0.0000E+00
       0.47000 -1.1843E+06  1.0917E+03 -4.2738E+04 -1.5328E+06  1.4904E+06  0.0000E+00 -3.1492E-02  0.0000E+00  0.0000E+00
         3.040  5.5682E+03  0.0000E+00  0.0000E+00  0.0000E+00  9.0000E+01  9.0000E+01  9.0000E+01  0.0000E+00  4.6021E+01

       rolling -1.1993E+06  6.0558E+02 -1.2020E+06  2.9021E+05 -1.4922E+06  0.0000E+00  3.7366E-03  0.0000E+00  0.0000E+00
      averages -1.1831E+06  6.2027E+02 -4.5768E+04 -1.5368E+06  1.4914E+06  0.0000E+00 -3.6140E-02  0.0000E+00  0.0000E+00
                5.5682E+03  0.0000E+00  0.0000E+00  0.0000E+00  9.0000E+01  9.0000E+01  9.0000E+01  0.0000E+00  4.9169E+01
 ----------------------------------------------------------------------------------------------------------------------------------
 ----------------------------------------------------------------------------------------------------------------------------------

          step     eng_tot    temp_tot     eng_cfg     eng_src     eng_cou     eng_bnd     eng_ang     eng_dih     eng_tet
      time(ps)      eng_pv    temp_rot     vir_cfg     vir_src     vir_cou     vir_bnd     vir_ang     vir_con     vir_tet
      cpu  (s)      volume    temp_shl     eng_shl     vir_shl       alpha        beta       gamma     vir_pmf       press

 ----------------------------------------------------------------------------------------------------------------------------------
           480 -1.1993E+06  5.7536E+02 -1.2020E+06  2.9077E+05 -1.4928E+06  0.0000E+00  4.0242E-03  0.0000E+00  0.0000E+00
       0.48000 -1.1828E+06  1.7033E+03 -4.7478E+04 -1.5392E+06  1.4919E+06  0.0000E+00 -3.8880E-02  0.0000E+00  0.0000E+00
         3.106  5.5682E+03  0.0000E+00  0.0000E+00  0.0000E+00  9.0000E+01  9.0000E+01  9.0000E+01  0.0000E+00  5.0606E+01

       rolling -1.1993E+06  6.0226E+02 -1.2020E+06  2.9033E+05 -1.4924E+06  0.0000E+00  3.7179E-03  0.0000E+00  0.0000E+00
      averages -1.1830E+06  6.2603E+02 -4.6204E+04 -1.5374E+06  1.4915E+06  0.0000E+00 -3.5967E-02  0.0000E+00  0.0000E+00
                5.5682E+03  0.0000E+00  0.0000E+00  0.0000E+00  9.0000E+01  9.0000E+01  9.0000E+01  0.0000E+00  4.9573E+01
 ----------------------------------------------------------------------------------------------------------------------------------
           490 -1.1993E+06  6.1047E+02 -1.2022E+06  2.9146E+05 -1.4937E+06  0.0000E+00  3.7436E-03  0.0000E+00  0.0000E+00
       0.49000 -1.1819E+06  2.0209E+03 -4.9773E+04 -1.5425E+06  1.4928E+06  0.0000E+00 -3.6201E-02  0.0000E+00  0.0000E+00
         3.169  5.5682E+03  0.0000E+00  0.0000E+00  0.0000E+00  9.0000E+01  9.0000E+01  9.0000E+01  0.0000E+00  5.3098E+01

       rolling -1.1993E+06  5.9861E+02 -1.2020E+06  2.9056E+05 -1.4926E+06  0.0000E+00  3.7738E-03  0.0000E+00  0.0000E+00
      averages -1.1828E+06  7.2082E+02 -4.6968E+04 -1.5384E+06  1.4917E+06  0.0000E+00 -3.6495E-02  0.0000E+00  0.0000E+00
                5.5682E+03  0.0000E+00  0.0000E+00  0.0000E+00  9.0000E+01  9.0000E+01  9.0000E+01  0.0000E+00  5.0295E+01
 ----------------------------------------------------------------------------------------------------------------------------------
           500 -1.1993E+06  5.6064E+02 -1.2020E+06  2.9181E+05 -1.4938E+06  0.0000E+00  3.6759E-03  0.0000E+00  0.0000E+00
       0.50000 -1.1817E+06  2.0830E+03 -5.0908E+04 -1.5438E+06  1.4930E+06  0.0000E+00 -3.5578E-02  0.0000E+00  0.0000E+00
         3.235  5.5682E+03  0.0000E+00  0.0000E+00  0.0000E+00  9.0000E+01  9.0000E+01  9.0000E+01  0.0000E+00  5.3858E+01

       rolling -1.1993E+06  5.9485E+02 -1.2020E+06  2.9064E+05 -1.4927E+06  0.0000E+00  3.7194E-03  0.0000E+00  0.0000E+00
      averages -1.1827E+06  8.6414E+02 -4.7229E+04 -1.5387E+06  1.4918E+06  0.0000E+00 -3.5976E-02  0.0000E+00  0.0000E+00
                5.5682E+03  0.0000E+00  0.0000E+00  0.0000E+00  9.0000E+01  9.0000E+01  9.0000E+01  0.0000E+00  5.0521E+01
 ----------------------------------------------------------------------------------------------------------------------------------
           510 -1.1993E+06  5.4734E+02 -1.2020E+06  2.9174E+05 -1.4937E+06  0.0000E+00  4.2829E-03  0.0000E+00  0.0000E+00
       0.51000 -1.1818E+06  1.7995E+03 -5.0842E+04 -1.5435E+06  1.4929E+06  0.0000E+00 -4.1375E-02  0.0000E+00  0.0000E+00
         3.298  5.5682E+03  0.0000E+00  0.0000E+00  0.0000E+00  9.0000E+01  9.0000E+01  9.0000E+01  0.0000E+00  5.3706E+01

       rolling -1.1993E+06  5.9199E+02 -1.2021E+06  2.9063E+05 -1.4927E+06  0.0000E+00  3.7216E-03  0.0000E+00  0.0000E+00
      averages -1.1828E+06  1.0203E+03 -4.7212E+04 -1.5387E+06  1.4918E+06  0.0000E+00 -3.5997E-02  0.0000E+00  0.0000E+00
                5.5682E+03  0.0000E+00  0.0000E+00  0.0000E+00  9.0000E+01  9.0000E+01  9.0000E+01  0.0000E+00  5.0480E+01
 ----------------------------------------------------------------------------------------------------------------------------------
           520 -1.1993E+06  5.8033E+02 -1.2022E+06  2.9053E+05 -1.4927E+06  0.0000E+00  3.5187E-03  0.0000E+00  0.0000E+00
       0.52000 -1.1830E+06  1.2130E+03 -4.6893E+04 -1.5384E+06  1.4918E+06  0.0000E+00 -3.4072E-02  0.0000E+00  0.0000E+00
         3.361  5.5682E+03  0.0000E+00  0.0000E+00  0.0000E+00  9.0000E+01  9.0000E+01  9.0000E+01  0.0000E+00  5.0080E+01

       rolling -1.1993E+06  5.8991E+02 -1.2021E+06  2.9057E+05 -1.4926E+06  0.0000E+00  3.7351E-03  0.0000E+00  0.0000E+00
      averages -1.1829E+06  1.1441E+03 -4.6999E+04 -1.5385E+06  1.4918E+06  0.0000E+00 -3.6118E-02  0.0000E+00  0.0000E+00
                5.5682E+03  0.0000E+00  0.0000E+00  0.0000E+00  9.0000E+01  9.0000E+01  9.0000E+01  0.0000E+00  5.0254E+01
 ----------------------------------------------------------------------------------------------------------------------------------
           530 -1.1993E+06  5.9118E+02 -1.2022E+06  2.9005E+05 -1.4923E+06  0.0000E+00  3.4608E-03  0.0000E+00  0.0000E+00
       0.53000 -1.1837E+06  7.6271E+02 -4.5014E+04 -1.5362E+06  1.4914E+06  0.0000E+00 -3.3486E-02  0.0000E+00  0.0000E+00
         3.427  5.5682E+03  0.0000E+00  0.0000E+00  0.0000E+00  9.0000E+01  9.0000E+01  9.0000E+01  0.0000E+00  4.8324E+01

       rolling -1.1993E+06  5.8672E+02 -1.2021E+06  2.9044E+05 -1.4925E+06  0.0000E+00  3.6765E-03  0.0000E+00  0.0000E+00
      averages -1.1831E+06  1.2092E+03 -4.6516E+04 -1.5379E+06  1.4917E+06  0.0000E+00 -3.5558E-02  0.0000E+00  0.0000E+00
                5.5682E+03  0.0000E+00  0.0000E+00  0.0000E+00  9.0000E+01  9.0000E+01  9.0000E+01  0.0000E+00  4.9755E+01
 ----------------------------------------------------------------------------------------------------------------------------------
           540 -1.1993E+06  5.7811E+02 -1.2022E+06  2.9000E+05 -1.4922E+06  0.0000E+00  3.5869E-03  0.0000E+00  0.0000E+00
       0.54000 -1.1838E+06  5.2172E+02 -4.4681E+04 -1.5358E+06  1.4913E+06  0.0000E+00 -3.4669E-02  0.0000E+00  0.0000E+00
         3.490  5.5682E+03  0.0000E+00  0.0000E+00  0.0000E+00  9.0000E+01  9.0000E+01  9.0000E+01  0.0000E+00  4.7911E+01

       rolling -1.1993E+06  5.8127E+02 -1.2021E+06  2.9041E+05 -1.4925E+06  0.0000E+00  3.7011E-03  0.0000E+00  0.0000E+00
      averages -1.1831E+06  1.2265E+03 -4.6380E+04 -1.5378E+06  1.4916E+06  0.0000E+00 -3.5794E-02  0.0000E+00  0.0000E+00
                5.5682E+03  0.0000E+00  0.0000E+00  0.0000E+00  9.0000E+01  9.0000E+01  9.0000E+01  0.0000E+00  4.9582E+01
 ----------------------------------------------------------------------------------------------------------------------------------
           550 -1.1993E+06  5.5131E+02 -1.2021E+06  2.8993E+05 -1.4920E+06  0.0000E+00  3.3703E-03  0.0000E+00  0.0000E+00
       0.55000 -1.1839E+06  3.9584E+02 -4.4695E+04 -1.5357E+06  1.4912E+06  0.0000E+00 -3.2642E-02  0.0000E+00  0.0000E+00
         3.553  5.5682E+03  0.0000E+00  0.0000E+00  0.0000E+00  9.0000E+01  9.0000E+01  9.0000E+01  0.0000E+00  4.7738E+01

       rolling -1.1993E+06  5.7871E+02 -1.2021E+06  2.9045E+05 -1.4926E+06  0.0000E+00  3.6903E-03  0.0000E+00  0.0000E+00
      averages -1.1831E+06  1.2257E+03 -4.6487E+04 -1.5380E+06  1.4917E+06  0.0000E+00 -3.5686E-02  0.0000E+00  0.0000E+00
                5.5682E+03  0.0000E+00  0.0000E+00  0.0000E+00  9.0000E+01  9.0000E+01  9.0000E+01  0.0000E+00  4.9670E+01
 ----------------------------------------------------------------------------------------------------------------------------------
 ----------------------------------------------------------------------------------------------------------------------------------

          step     eng_tot    temp_tot     eng_cfg     eng_src     eng_cou     eng_bnd     eng_ang     eng_dih     eng_tet
      time(ps)      eng_pv    temp_rot     vir_cfg     vir_src     vir_cou     vir_bnd     vir_ang     vir_con     vir_tet
      cpu  (s)      volume    temp_shl     eng_shl     vir_shl       alpha        beta       gamma     vir_pmf       press

 ----------------------------------------------------------------------------------------------------------------------------------
           560 -1.1993E+06  5.4679E+02 -1.2021E+06  2.9107E+05 -1.4932E+06  0.0000E+00  4.0333E-03  0.0000E+00  0.0000E+00
       0.56000 -1.1827E+06  3.1519E+02 -4.8445E+04 -1.5406E+06  1.4923E+06  0.0000E+00 -3.9013E-02  0.0000E+00  0.0000E+00
         3.618  5.5682E+03  0.0000E+00  0.0000E+00  0.0000E+00  9.0000E+01  9.0000E+01  9.0000E+01  0.0000E+00  5.1387E+01

       rolling -1.1993E+06  5.7501E+02 -1.2021E+06  2.9057E+05 -1.4927E+06  0.0000E+00  3.6712E-03  0.0000E+00  0.0000E+00
      averages -1.1831E+06  1.2074E+03 -4.6846E+04 -1.5385E+06  1.4918E+06  0.0000E+00 -3.5514E-02  0.0000E+00  0.0000E+00
                5.5682E+03  0.0000E+00  0.0000E+00  0.0000E+00  9.0000E+01  9.0000E+01  9.0000E+01  0.0000E+00  4.9996E+01
 ----------------------------------------------------------------------------------------------------------------------------------
           570 -1.1993E+06  5.6187E+02 -1.2022E+06  2.9161E+05 -1.4938E+06  0.0000E+00  3.7828E-03  0.0000E+00  0.0000E+00
       0.57000 -1.1821E+06  2.6986E+02 -5.0189E+04 -1.5430E+06  1.4929E+06  0.0000E+00 -3.6503E-02  0.0000E+00  0.0000E+00
         3.682  5.5682E+03  0.0000E+00  0.0000E+00  0.0000E+00  9.0000E+01  9.0000E+01  9.0000E+01  0.0000E+00  5.3205E+01

       rolling -1.1993E+06  5.7269E+02 -1.2021E+06  2.9079E+05 -1.4929E+06  0.0000E+00  3.7316E-03  0.0000E+00  0.0000E+00
      averages -1.1828E+06  1.1511E+03 -4.7575E+04 -1.5394E+06  1.4921E+06  0.0000E+00 -3.6091E-02  0.0000E+00  0.0000E+00
                5.5682E+03  0.0000E+00  0.0000E+00  0.0000E+00  9.0000E+01  9.0000E+01  9.0000E+01  0.0000E+00  5.0696E+01
 ----------------------------------------------------------------------------------------------------------------------------------
           580 -1.1993E+06  5.2381E+02 -1.2021E+06  2.9099E+05 -1.4931E+06  0.0000E+00  3.3581E-03  0.0000E+00  0.0000E+00
       0.58000 -1.1829E+06  2.7350E+02 -4.8281E+04 -1.5402E+06  1.4922E+06  0.0000E+00 -3.2558E-02  0.0000E+00  0.0000E+00
         3.745  5.5682E+03  0.0000E+00  0.0000E+00  0.0000E+00  9.0000E+01  9.0000E+01  9.0000E+01  0.0000E+00  5.1065E+01

       rolling -1.1993E+06  5.6802E+02 -1.2021E+06  2.9091E+05 -1.4930E+06  0.0000E+00  3.7169E-03  0.0000E+00  0.0000E+00
      averages -1.1827E+06  1.0336E+03 -4.7946E+04 -1.5399E+06  1.4922E+06  0.0000E+00 -3.5948E-02  0.0000E+00  0.0000E+00
                5.5682E+03  0.0000E+00  0.0000E+00  0.0000E+00  9.0000E+01  9.0000E+01  9.0000E+01  0.0000E+00  5.1030E+01
 ----------------------------------------------------------------------------------------------------------------------------------
           590 -1.1993E+06  5.6519E+02 -1.2023E+06  2.9069E+05 -1.4930E+06  0.0000E+00  3.7936E-03  0.0000E+00  0.0000E+00
       0.59000 -1.1831E+06  3.0364E+02 -4.7397E+04 -1.5392E+06  1.4921E+06  0.0000E+00 -3.6585E-02  0.0000E+00  0.0000E+00
         3.810  5.5682E+03  0.0000E+00  0.0000E+00  0.0000E+00  9.0000E+01  9.0000E+01  9.0000E+01  0.0000E+00  5.0489E+01

       rolling -1.1993E+06  5.6481E+02 -1.2021E+06  2.9087E+05 -1.4930E+06  0.0000E+00  3.6739E-03  0.0000E+00  0.0000E+00
      averages -1.1828E+06  8.7236E+02 -4.7822E+04 -1.5398E+06  1.4921E+06  0.0000E+00 -3.5535E-02  0.0000E+00  0.0000E+00
                5.5682E+03  0.0000E+00  0.0000E+00  0.0000E+00  9.0000E+01  9.0000E+01  9.0000E+01  0.0000E+00  5.0890E+01
 ----------------------------------------------------------------------------------------------------------------------------------
           600 -1.1993E+06  5.5948E+02 -1.2023E+06  2.9049E+05 -1.4928E+06  0.0000E+00  3.3867E-03  0.0000E+00  0.0000E+00
       0.60000 -1.1834E+06  3.1092E+02 -4.6453E+04 -1.5381E+06  1.4919E+06  0.0000E+00 -3.2800E-02  0.0000E+00  0.0000E+00
         3.874  5.5682E+03  0.0000E+00  0.0000E+00  0.0000E+00  9.0000E+01  9.0000E+01  9.0000E+01  0.0000E+00  4.9523E+01

       rolling -1.1993E+06  5.6198E+02 -1.2022E+06  2.9077E+05 -1.4929E+06  0.0000E+00  3.6807E-03  0.0000E+00  0.0000E+00
      averages -1.1830E+06  6.9589E+02 -4.7503E+04 -1.5394E+06  1.4921E+06  0.0000E+00 -3.5594E-02  0.0000E+00  0.0000E+00
                5.5682E+03  0.0000E+00  0.0000E+00  0.0000E+00  9.0000E+01  9.0000E+01  9.0000E+01  0.0000E+00  5.0561E+01
 ----------------------------------------------------------------------------------------------------------------------------------
           610 -1.1993E+06  5.3564E+02 -1.2022E+06  2.9120E+05 -1.4934E+06  0.0000E+00  3.3592E-03  0.0000E+00  0.0000E+00
       0.61000 -1.1828E+06  2.7329E+02 -4.8681E+04 -1.5411E+06  1.4925E+06  0.0000E+00 -3.2471E-02  0.0000E+00  0.0000E+00
         3.939  5.5682E+03  0.0000E+00  0.0000E+00  0.0000E+00  9.0000E+01  9.0000E+01  9.0000E+01  0.0000E+00  5.1541E+01

       rolling -1.1993E+06  5.6090E+02 -1.2022E+06  2.9065E+05 -1.4928E+06  0.0000E+00  3.6016E-03  0.0000E+00  0.0000E+00
      averages -1.1831E+06  5.2895E+02 -4.7094E+04 -1.5388E+06  1.4920E+06  0.0000E+00 -3.4833E-02  0.0000E+00  0.0000E+00
                5.5682E+03  0.0000E+00  0.0000E+00  0.0000E+00  9.0000E+01  9.0000E+01  9.0000E+01  0.0000E+00  5.0156E+01
 ----------------------------------------------------------------------------------------------------------------------------------
           620 -1.1993E+06  5.5472E+02 -1.2023E+06  2.9228E+05 -1.4946E+06  0.0000E+00  3.8817E-03  0.0000E+00  0.0000E+00
       0.62000 -1.1815E+06  2.2621E+02 -5.2399E+04 -1.5459E+06  1.4937E+06  0.0000E+00 -3.7489E-02  0.0000E+00  0.0000E+00
         4.003  5.5682E+03  0.0000E+00  0.0000E+00  0.0000E+00  9.0000E+01  9.0000E+01  9.0000E+01  0.0000E+00  5.5324E+01

       rolling -1.1993E+06  5.5671E+02 -1.2022E+06  2.9074E+05 -1.4929E+06  0.0000E+00  3.5795E-03  0.0000E+00  0.0000E+00
      averages -1.1831E+06  4.0522E+02 -4.7325E+04 -1.5392E+06  1.4921E+06  0.0000E+00 -3.4614E-02  0.0000E+00  0.0000E+00
                5.5682E+03  0.0000E+00  0.0000E+00  0.0000E+00  9.0000E+01  9.0000E+01  9.0000E+01  0.0000E+00  5.0356E+01
 ----------------------------------------------------------------------------------------------------------------------------------
           630 -1.1993E+06  5.1912E+02 -1.2022E+06  2.9210E+05 -1.4943E+06  0.0000E+00  3.4541E-03  0.0000E+00  0.0000E+00
       0.63000 -1.1818E+06  1.8339E+02 -5.1941E+04 -1.5451E+06  1.4934E+06  0.0000E+00 -3.3428E-02  0.0000E+00  0.0000E+00
         4.067  5.5682E+03  0.0000E+00  0.0000E+00  0.0000E+00  9.0000E+01  9.0000E+01  9.0000E+01  0.0000E+00  5.4625E+01

       rolling -1.1993E+06  5.5391E+02 -1.2022E+06  2.9095E+05 -1.4932E+06  0.0000E+00  3.6099E-03  0.0000E+00  0.0000E+00
      averages -1.1829E+06  3.3105E+02 -4.8023E+04 -1.5401E+06  1.4923E+06  0.0000E+00 -3.4904E-02  0.0000E+00  0.0000E+00
                5.5682E+03  0.0000E+00  0.0000E+00  0.0000E+00  9.0000E+01  9.0000E+01  9.0000E+01  0.0000E+00  5.1023E+01
 ----------------------------------------------------------------------------------------------------------------------------------
 ----------------------------------------------------------------------------------------------------------------------------------

          step     eng_tot    temp_tot     eng_cfg     eng_src     eng_cou     eng_bnd     eng_ang     eng_dih     eng_tet
      time(ps)      eng_pv    temp_rot     vir_cfg     vir_src     vir_cou     vir_bnd     vir_ang     vir_con     vir_tet
      cpu  (s)      volume    temp_shl     eng_shl     vir_shl       alpha        beta       gamma     vir_pmf       press

 ----------------------------------------------------------------------------------------------------------------------------------
           640 -1.1993E+06  5.4415E+02 -1.2023E+06  2.9157E+05 -1.4939E+06  0.0000E+00  3.3172E-03  0.0000E+00  0.0000E+00
       0.64000 -1.1824E+06  1.6807E+02 -5.0137E+04 -1.5429E+06  1.4930E+06  0.0000E+00 -3.2055E-02  0.0000E+00  0.0000E+00
         4.132  5.5682E+03  0.0000E+00  0.0000E+00  0.0000E+00  9.0000E+01  9.0000E+01  9.0000E+01  0.0000E+00  5.3032E+01

       rolling -1.1993E+06  5.4793E+02 -1.2022E+06  2.9112E+05 -1.4933E+06  0.0000E+00  3.5802E-03  0.0000E+00  0.0000E+00
      averages -1.1827E+06  2.8649E+02 -4.8599E+04 -1.5408E+06  1.4924E+06  0.0000E+00 -3.4616E-02  0.0000E+00  0.0000E+00
                5.5682E+03  0.0000E+00  0.0000E+00  0.0000E+00  9.0000E+01  9.0000E+01  9.0000E+01  0.0000E+00  5.1546E+01
 ----------------------------------------------------------------------------------------------------------------------------------
           650 -1.1993E+06  5.3468E+02 -1.2023E+06  2.9110E+05 -1.4934E+06  0.0000E+00  3.5056E-03  0.0000E+00  0.0000E+00
       0.65000 -1.1830E+06  1.8451E+02 -4.8436E+04 -1.5408E+06  1.4925E+06  0.0000E+00 -3.3933E-02  0.0000E+00  0.0000E+00
         4.195  5.5682E+03  0.0000E+00  0.0000E+00  0.0000E+00  9.0000E+01  9.0000E+01  9.0000E+01  0.0000E+00  5.1296E+01

       rolling -1.1993E+06  5.4574E+02 -1.2022E+06  2.9127E+05 -1.4935E+06  0.0000E+00  3.5853E-03  0.0000E+00  0.0000E+00
      averages -1.1826E+06  2.5933E+02 -4.9117E+04 -1.5415E+06  1.4926E+06  0.0000E+00 -3.4666E-02  0.0000E+00  0.0000E+00
                5.5682E+03  0.0000E+00  0.0000E+00  0.0000E+00  9.0000E+01  9.0000E+01  9.0000E+01  0.0000E+00  5.2040E+01
 ----------------------------------------------------------------------------------------------------------------------------------
           660 -1.1993E+06  5.1868E+02 -1.2023E+06  2.9012E+05 -1.4924E+06  0.0000E+00  3.1959E-03  0.0000E+00  0.0000E+00
       0.66000 -1.1840E+06  2.3399E+02 -4.5402E+04 -1.5367E+06  1.4915E+06  0.0000E+00 -3.0890E-02  0.0000E+00  0.0000E+00
         4.259  5.5682E+03  0.0000E+00  0.0000E+00  0.0000E+00  9.0000E+01  9.0000E+01  9.0000E+01  0.0000E+00  4.8205E+01

       rolling -1.1993E+06  5.4363E+02 -1.2023E+06  2.9127E+05 -1.4935E+06  0.0000E+00  3.5450E-03  0.0000E+00  0.0000E+00
      averages -1.1826E+06  2.4531E+02 -4.9091E+04 -1.5415E+06  1.4926E+06  0.0000E+00 -3.4273E-02  0.0000E+00  0.0000E+00
                5.5682E+03  0.0000E+00  0.0000E+00  0.0000E+00  9.0000E+01  9.0000E+01  9.0000E+01  0.0000E+00  5.2000E+01
[...]
        63.101  5.5682E+03  0.0000E+00  0.0000E+00  0.0000E+00  9.0000E+01  9.0000E+01  9.0000E+01  0.0000E+00  5.3386E+01

       rolling -1.1993E+06  9.9279E+01 -1.2039E+06  2.9248E+05 -1.4964E+06  0.0000E+00  2.4651E-03  0.0000E+00  0.0000E+00
      averages -1.1859E+06  1.2213E+02 -5.2222E+04 -1.5477E+06  1.4955E+06  0.0000E+00 -2.3818E-02  0.0000E+00  0.0000E+00
                5.5682E+03  0.0000E+00  0.0000E+00  0.0000E+00  9.0000E+01  9.0000E+01  9.0000E+01  0.0000E+00  5.1932E+01
 ----------------------------------------------------------------------------------------------------------------------------------
          9880 -1.1993E+06  9.6813E+01 -1.2039E+06  2.9299E+05 -1.4968E+06  0.0000E+00  2.4805E-03  0.0000E+00  0.0000E+00
       9.88000 -1.1853E+06  1.5170E+02 -5.3895E+04 -1.5499E+06  1.4960E+06  0.0000E+00 -2.3962E-02  0.0000E+00  0.0000E+00
        63.164  5.5682E+03  0.0000E+00  0.0000E+00  0.0000E+00  9.0000E+01  9.0000E+01  9.0000E+01  0.0000E+00  5.3555E+01

       rolling -1.1993E+06  9.9856E+01 -1.2039E+06  2.9253E+05 -1.4964E+06  0.0000E+00  2.4618E-03  0.0000E+00  0.0000E+00
      averages -1.1858E+06  1.3287E+02 -5.2403E+04 -1.5479E+06  1.4955E+06  0.0000E+00 -2.3785E-02  0.0000E+00  0.0000E+00
                5.5682E+03  0.0000E+00  0.0000E+00  0.0000E+00  9.0000E+01  9.0000E+01  9.0000E+01  0.0000E+00  5.2114E+01
 ----------------------------------------------------------------------------------------------------------------------------------
          9890 -1.1993E+06  1.0465E+02 -1.2039E+06  2.9301E+05 -1.4969E+06  0.0000E+00  2.5604E-03  0.0000E+00  0.0000E+00
       9.89000 -1.1852E+06  1.2658E+02 -5.4044E+04 -1.5501E+06  1.4960E+06  0.0000E+00 -2.4727E-02  0.0000E+00  0.0000E+00
        63.228  5.5682E+03  0.0000E+00  0.0000E+00  0.0000E+00  9.0000E+01  9.0000E+01  9.0000E+01  0.0000E+00  5.3757E+01

       rolling -1.1993E+06  1.0019E+02 -1.2039E+06  2.9259E+05 -1.4965E+06  0.0000E+00  2.4558E-03  0.0000E+00  0.0000E+00
      averages -1.1857E+06  1.3987E+02 -5.2580E+04 -1.5482E+06  1.4956E+06  0.0000E+00 -2.3726E-02  0.0000E+00  0.0000E+00
                5.5682E+03  0.0000E+00  0.0000E+00  0.0000E+00  9.0000E+01  9.0000E+01  9.0000E+01  0.0000E+00  5.2290E+01
 ----------------------------------------------------------------------------------------------------------------------------------
          9900 -1.1993E+06  9.6589E+01 -1.2039E+06  2.9301E+05 -1.4969E+06  0.0000E+00  2.6018E-03  0.0000E+00  0.0000E+00
       9.90000 -1.1853E+06  1.0210E+02 -5.4045E+04 -1.5500E+06  1.4960E+06  0.0000E+00 -2.5121E-02  0.0000E+00  0.0000E+00
        63.291  5.5682E+03  0.0000E+00  0.0000E+00  0.0000E+00  9.0000E+01  9.0000E+01  9.0000E+01  0.0000E+00  5.3702E+01

       rolling -1.1993E+06  1.0058E+02 -1.2039E+06  2.9266E+05 -1.4965E+06  0.0000E+00  2.4688E-03  0.0000E+00  0.0000E+00
      averages -1.1857E+06  1.4277E+02 -5.2823E+04 -1.5485E+06  1.4957E+06  0.0000E+00 -2.3849E-02  0.0000E+00  0.0000E+00
                5.5682E+03  0.0000E+00  0.0000E+00  0.0000E+00  9.0000E+01  9.0000E+01  9.0000E+01  0.0000E+00  5.2530E+01
 ----------------------------------------------------------------------------------------------------------------------------------
          9910 -1.1993E+06  9.3733E+01 -1.2039E+06  2.9270E+05 -1.4966E+06  0.0000E+00  2.4587E-03  0.0000E+00  0.0000E+00
       9.91000 -1.1856E+06  7.1313E+01 -5.3060E+04 -1.5487E+06  1.4957E+06  0.0000E+00 -2.3751E-02  0.0000E+00  0.0000E+00
        63.355  5.5682E+03  0.0000E+00  0.0000E+00  0.0000E+00  9.0000E+01  9.0000E+01  9.0000E+01  0.0000E+00  5.2716E+01

       rolling -1.1993E+06  1.0079E+02 -1.2039E+06  2.9271E+05 -1.4966E+06  0.0000E+00  2.4753E-03  0.0000E+00  0.0000E+00
      averages -1.1856E+06  1.4133E+02 -5.3008E+04 -1.5487E+06  1.4957E+06  0.0000E+00 -2.3909E-02  0.0000E+00  0.0000E+00
                5.5682E+03  0.0000E+00  0.0000E+00  0.0000E+00  9.0000E+01  9.0000E+01  9.0000E+01  0.0000E+00  5.2714E+01
 ----------------------------------------------------------------------------------------------------------------------------------
 ----------------------------------------------------------------------------------------------------------------------------------

          step     eng_tot    temp_tot     eng_cfg     eng_src     eng_cou     eng_bnd     eng_ang     eng_dih     eng_tet
      time(ps)      eng_pv    temp_rot     vir_cfg     vir_src     vir_cou     vir_bnd     vir_ang     vir_con     vir_tet
      cpu  (s)      volume    temp_shl     eng_shl     vir_shl       alpha        beta       gamma     vir_pmf       press

 ----------------------------------------------------------------------------------------------------------------------------------
          9920 -1.1993E+06  1.0289E+02 -1.2039E+06  2.9254E+05 -1.4964E+06  0.0000E+00  2.4075E-03  0.0000E+00  0.0000E+00
       9.92000 -1.1857E+06  3.7559E+01 -5.2559E+04 -1.5481E+06  1.4955E+06  0.0000E+00 -2.3278E-02  0.0000E+00  0.0000E+00
        63.417  5.5682E+03  0.0000E+00  0.0000E+00  0.0000E+00  9.0000E+01  9.0000E+01  9.0000E+01  0.0000E+00  5.2291E+01

       rolling -1.1993E+06  1.0015E+02 -1.2039E+06  2.9274E+05 -1.4966E+06  0.0000E+00  2.4719E-03  0.0000E+00  0.0000E+00
      averages -1.1856E+06  1.3489E+02 -5.3113E+04 -1.5489E+06  1.4957E+06  0.0000E+00 -2.3878E-02  0.0000E+00  0.0000E+00
                5.5682E+03  0.0000E+00  0.0000E+00  0.0000E+00  9.0000E+01  9.0000E+01  9.0000E+01  0.0000E+00  5.2813E+01
 ----------------------------------------------------------------------------------------------------------------------------------
          9930 -1.1993E+06  9.2897E+01 -1.2038E+06  2.9253E+05 -1.4964E+06  0.0000E+00  2.4941E-03  0.0000E+00  0.0000E+00
       9.93000 -1.1858E+06  1.3244E+01 -5.2518E+04 -1.5480E+06  1.4955E+06  0.0000E+00 -2.4080E-02  0.0000E+00  0.0000E+00
        63.482  5.5682E+03  0.0000E+00  0.0000E+00  0.0000E+00  9.0000E+01  9.0000E+01  9.0000E+01  0.0000E+00  5.2180E+01

       rolling -1.1993E+06  1.0025E+02 -1.2039E+06  2.9276E+05 -1.4966E+06  0.0000E+00  2.4716E-03  0.0000E+00  0.0000E+00
      averages -1.1855E+06  1.2340E+02 -5.3198E+04 -1.5490E+06  1.4958E+06  0.0000E+00 -2.3873E-02  0.0000E+00  0.0000E+00
                5.5682E+03  0.0000E+00  0.0000E+00  0.0000E+00  9.0000E+01  9.0000E+01  9.0000E+01  0.0000E+00  5.2896E+01
 ----------------------------------------------------------------------------------------------------------------------------------
          9940 -1.1993E+06  9.5457E+01 -1.2039E+06  2.9252E+05 -1.4964E+06  0.0000E+00  2.5068E-03  0.0000E+00  0.0000E+00
       9.94000 -1.1858E+06  1.4245E+01 -5.2556E+04 -1.5480E+06  1.4955E+06  0.0000E+00 -2.4216E-02  0.0000E+00  0.0000E+00
        63.545  5.5682E+03  0.0000E+00  0.0000E+00  0.0000E+00  9.0000E+01  9.0000E+01  9.0000E+01  0.0000E+00  5.2235E+01

       rolling -1.1993E+06  1.0007E+02 -1.2039E+06  2.9276E+05 -1.4966E+06  0.0000E+00  2.4705E-03  0.0000E+00  0.0000E+00
      averages -1.1855E+06  1.0901E+02 -5.3207E+04 -1.5490E+06  1.4958E+06  0.0000E+00 -2.3864E-02  0.0000E+00  0.0000E+00
                5.5682E+03  0.0000E+00  0.0000E+00  0.0000E+00  9.0000E+01  9.0000E+01  9.0000E+01  0.0000E+00  5.2904E+01
 ----------------------------------------------------------------------------------------------------------------------------------
          9950 -1.1993E+06  1.0710E+02 -1.2039E+06  2.9277E+05 -1.4967E+06  0.0000E+00  2.5261E-03  0.0000E+00  0.0000E+00
       9.95000 -1.1855E+06  5.2924E+01 -5.3352E+04 -1.5491E+06  1.4958E+06  0.0000E+00 -2.4394E-02  0.0000E+00  0.0000E+00
        63.609  5.5682E+03  0.0000E+00  0.0000E+00  0.0000E+00  9.0000E+01  9.0000E+01  9.0000E+01  0.0000E+00  5.3098E+01

       rolling -1.1993E+06  9.9448E+01 -1.2039E+06  2.9276E+05 -1.4966E+06  0.0000E+00  2.4816E-03  0.0000E+00  0.0000E+00
      averages -1.1855E+06  9.5955E+01 -5.3234E+04 -1.5490E+06  1.4958E+06  0.0000E+00 -2.3970E-02  0.0000E+00  0.0000E+00
                5.5682E+03  0.0000E+00  0.0000E+00  0.0000E+00  9.0000E+01  9.0000E+01  9.0000E+01  0.0000E+00  5.2927E+01
 ----------------------------------------------------------------------------------------------------------------------------------
          9960 -1.1993E+06  1.0192E+02 -1.2039E+06  2.9300E+05 -1.4969E+06  0.0000E+00  2.4411E-03  0.0000E+00  0.0000E+00
       9.96000 -1.1853E+06  1.1301E+02 -5.4038E+04 -1.5500E+06  1.4960E+06  0.0000E+00 -2.3581E-02  0.0000E+00  0.0000E+00
        63.672  5.5682E+03  0.0000E+00  0.0000E+00  0.0000E+00  9.0000E+01  9.0000E+01  9.0000E+01  0.0000E+00  5.3733E+01

       rolling -1.1993E+06  9.9680E+01 -1.2039E+06  2.9279E+05 -1.4967E+06  0.0000E+00  2.4906E-03  0.0000E+00  0.0000E+00
      averages -1.1855E+06  8.7331E+01 -5.3328E+04 -1.5491E+06  1.4958E+06  0.0000E+00 -2.4055E-02  0.0000E+00  0.0000E+00
                5.5682E+03  0.0000E+00  0.0000E+00  0.0000E+00  9.0000E+01  9.0000E+01  9.0000E+01  0.0000E+00  5.3021E+01
 ----------------------------------------------------------------------------------------------------------------------------------
          9970 -1.1993E+06  1.0202E+02 -1.2039E+06  2.9316E+05 -1.4970E+06  0.0000E+00  2.4214E-03  0.0000E+00  0.0000E+00
       9.97000 -1.1851E+06  1.6619E+02 -5.4565E+04 -1.5507E+06  1.4962E+06  0.0000E+00 -2.3400E-02  0.0000E+00  0.0000E+00
        63.736  5.5682E+03  0.0000E+00  0.0000E+00  0.0000E+00  9.0000E+01  9.0000E+01  9.0000E+01  0.0000E+00  5.4249E+01

       rolling -1.1993E+06  9.9664E+01 -1.2039E+06  2.9281E+05 -1.4967E+06  0.0000E+00  2.4891E-03  0.0000E+00  0.0000E+00
      averages -1.1855E+06  8.4534E+01 -5.3421E+04 -1.5492E+06  1.4958E+06  0.0000E+00 -2.4044E-02  0.0000E+00  0.0000E+00
                5.5682E+03  0.0000E+00  0.0000E+00  0.0000E+00  9.0000E+01  9.0000E+01  9.0000E+01  0.0000E+00  5.3112E+01
 ----------------------------------------------------------------------------------------------------------------------------------
          9980 -1.1993E+06  9.9942E+01 -1.2039E+06  2.9316E+05 -1.4970E+06  0.0000E+00  2.4836E-03  0.0000E+00  0.0000E+00
       9.98000 -1.1851E+06  2.0298E+02 -5.4579E+04 -1.5507E+06  1.4961E+06  0.0000E+00 -2.3985E-02  0.0000E+00  0.0000E+00
        63.801  5.5682E+03  0.0000E+00  0.0000E+00  0.0000E+00  9.0000E+01  9.0000E+01  9.0000E+01  0.0000E+00  5.4247E+01

       rolling -1.1993E+06  9.9293E+01 -1.2039E+06  2.9283E+05 -1.4967E+06  0.0000E+00  2.4909E-03  0.0000E+00  0.0000E+00
      averages -1.1854E+06  8.7263E+01 -5.3507E+04 -1.5493E+06  1.4958E+06  0.0000E+00 -2.4061E-02  0.0000E+00  0.0000E+00
                5.5682E+03  0.0000E+00  0.0000E+00  0.0000E+00  9.0000E+01  9.0000E+01  9.0000E+01  0.0000E+00  5.3194E+01
 ----------------------------------------------------------------------------------------------------------------------------------
          9990 -1.1993E+06  9.7184E+01 -1.2039E+06  2.9308E+05 -1.4969E+06  0.0000E+00  2.4666E-03  0.0000E+00  0.0000E+00
       9.99000 -1.1852E+06  2.2667E+02 -5.4353E+04 -1.5504E+06  1.4961E+06  0.0000E+00 -2.3833E-02  0.0000E+00  0.0000E+00
        63.864  5.5682E+03  0.0000E+00  0.0000E+00  0.0000E+00  9.0000E+01  9.0000E+01  9.0000E+01  0.0000E+00  5.4005E+01

       rolling -1.1993E+06  9.9142E+01 -1.2039E+06  2.9285E+05 -1.4967E+06  0.0000E+00  2.4859E-03  0.0000E+00  0.0000E+00
      averages -1.1854E+06  9.5192E+01 -5.3556E+04 -1.5494E+06  1.4958E+06  0.0000E+00 -2.4012E-02  0.0000E+00  0.0000E+00
                5.5682E+03  0.0000E+00  0.0000E+00  0.0000E+00  9.0000E+01  9.0000E+01  9.0000E+01  0.0000E+00  5.3241E+01
 ----------------------------------------------------------------------------------------------------------------------------------
 ----------------------------------------------------------------------------------------------------------------------------------

          step     eng_tot    temp_tot     eng_cfg     eng_src     eng_cou     eng_bnd     eng_ang     eng_dih     eng_tet
      time(ps)      eng_pv    temp_rot     vir_cfg     vir_src     vir_cou     vir_bnd     vir_ang     vir_con     vir_tet
      cpu  (s)      volume    temp_shl     eng_shl     vir_shl       alpha        beta       gamma     vir_pmf       press

 ----------------------------------------------------------------------------------------------------------------------------------
         10000 -1.1993E+06  1.0906E+02 -1.2039E+06  2.9298E+05 -1.4969E+06  0.0000E+00  2.4528E-03  0.0000E+00  0.0000E+00
      10.00000 -1.1853E+06  2.3350E+02 -5.3922E+04 -1.5499E+06  1.4960E+06  0.0000E+00 -2.3701E-02  0.0000E+00  0.0000E+00
        63.929  5.5682E+03  0.0000E+00  0.0000E+00  0.0000E+00  9.0000E+01  9.0000E+01  9.0000E+01  0.0000E+00  5.3666E+01

       rolling -1.1993E+06  9.9782E+01 -1.2039E+06  2.9285E+05 -1.4967E+06  0.0000E+00  2.4718E-03  0.0000E+00  0.0000E+00
      averages -1.1854E+06  1.0703E+02 -5.3557E+04 -1.5494E+06  1.4958E+06  0.0000E+00 -2.3879E-02  0.0000E+00  0.0000E+00
                5.5682E+03  0.0000E+00  0.0000E+00  0.0000E+00  9.0000E+01  9.0000E+01  9.0000E+01  0.0000E+00  5.3246E+01
 ----------------------------------------------------------------------------------------------------------------------------------


 run terminating...  elapsed cpu time:       63.931 sec, job time:   100000.000 sec, close time:      100.000 sec



 sample of final configuration on node zero

        i       x(i)        y(i)        z(i)       vx(i)       vy(i)       vz(i)       fx(i)       fy(i)       fz(i)


        1  1.6606E+00 -1.3079E+00 -4.5626E+00  3.6333E+00  8.7455E-01 -9.1783E-01 -2.9903E+03 -7.8396E+03 -6.9616E+03
       16  2.5205E+00  8.8622E+00 -6.5215E+00 -2.5826E+00  1.5938E+00 -3.0801E+00 -1.8788E+04 -5.6234E+02 -2.5897E+03
       31 -6.2089E+00  2.5125E+00 -4.0484E+00 -1.8202E+00 -2.0147E+00 -2.6297E+00  2.2658E+03  1.8305E+04  1.5449E+01
       46 -3.6742E+00  6.5738E+00 -2.3952E+00  7.2975E-01  1.4495E+00  5.0161E-01 -1.9765E+03 -6.3287E+03 -4.1320E+03
       61  7.7255E+00 -1.2663E+00  3.5068E-01 -2.3706E+00  6.5966E-01  2.1127E+00  7.2955E+03 -7.8775E+03  8.2875E+03
       76  8.6913E+00 -6.7010E+00  2.2409E+00  9.5549E-01 -6.5568E-01  2.7555E+00  2.5825E+03 -2.9343E+02 -3.4588E+03
       91 -8.6772E+00 -2.6781E+00  2.6178E+00 -3.1060E+00  1.9989E+00 -5.8259E-01 -4.0581E+02 -8.9171E+03  9.3712E+03
      106 -6.0797E+00  8.8389E+00 -3.9341E-01 -1.4485E+00 -1.7243E-01  4.1665E+00 -8.0267E+02 -2.4053E+02 -6.1971E+02
      121  2.6592E+00  3.0640E+00 -3.3173E+00 -1.0362E+00  2.2838E+00  1.4572E+00  8.8202E+03 -2.9601E+03  3.4962E+03
      136  8.2661E+00  7.0602E+00 -1.2277E+00 -1.2344E+00  5.4075E-01 -1.1473E+00 -5.0760E+03 -4.3925E+03 -5.0338E+03
      151 -1.3277E+00  9.0752E-01 -4.1041E+00  1.1336E+00 -1.0972E+00 -2.5562E+00 -1.6345E+03  7.0433E+03 -1.1868E+03
      166 -3.8652E+00 -7.6597E+00 -1.4033E+00  4.1169E+00  2.0189E+00 -5.0102E-01  4.6828E+03 -4.1176E+02  1.1125E+03
      181 -1.0098E+01  3.0177E+00 -2.4916E+00 -2.5374E-01  4.1395E+00  3.7103E+00  1.0563E+03 -1.3533E+03 -2.4320E+03
      196  7.4237E+00  8.9456E+00  3.2615E+00  9.9422E-01  2.5270E+00 -3.8518E-01  1.6507E+04 -1.2883E+03 -9.7350E+03
      211 -7.6555E+00  9.0517E-01  3.7324E+00  2.3180E+00 -8.6395E-01 -2.7860E-01 -3.3432E+03  1.6484E+02 -2.3672E+03
      226 -4.1068E+00  6.5728E+00  6.4837E+00 -3.7713E+00 -1.7410E+00  4.3905E+00 -2.9532E+03  5.8908E+03 -1.6439E+03
      241  6.2563E+00 -1.0207E+00  4.1178E+00  1.6726E+00 -1.7309E-02  2.6320E+00  2.0843E+03  1.2306E+04  2.8445E+03
      256  8.2393E+00  1.0025E+01  1.1103E+00  1.6994E+00 -2.7851E+00  2.2517E+00 -5.2750E+03  3.5840E+00  2.0576E+03
      271 -6.0073E+00 -2.6534E+00  5.7308E+00 -1.8158E+00 -2.3372E+00 -7.7363E-01 -4.4948E+03  5.9950E+03 -3.9966E+03
      286 -5.9611E+00  4.9226E+00  6.3786E+00  5.1619E-01  5.8420E+00  4.2157E-01 -3.4838E+03 -2.8128E+03 -1.2398E+03


 VNL skipping run statistics - skips per timestep: average   10.08 minimum    3 maximum   26


 run terminated after    10000 steps (    10.000 ps), final averages calculated over    10000 steps (    10.000 ps).


 ----------------------------------------------------------------------------------------------------------------------------------

          step     eng_tot    temp_tot     eng_cfg     eng_src     eng_cou     eng_bnd     eng_ang     eng_dih     eng_tet
      time(ps)      eng_pv    temp_rot     vir_cfg     vir_src     vir_cou     vir_bnd     vir_ang     vir_con     vir_tet
      cpu  (s)      volume    temp_shl     eng_shl     vir_shl       alpha        beta       gamma     vir_pmf       press

 ----------------------------------------------------------------------------------------------------------------------------------
         10000 -1.1993E+06  2.9524E+02 -1.2032E+06  2.9190E+05 -1.4951E+06  0.0000E+00  2.9612E-03  0.0000E+00  0.0000E+00
      10.00000 -1.1845E+06  3.7086E+02 -5.0560E+04 -1.5447E+06  1.4942E+06  0.0000E+00 -2.8623E-02  0.0000E+00  0.0000E+00
        63.934  5.5682E+03  0.0000E+00  0.0000E+00  0.0000E+00  9.0000E+01  9.0000E+01  9.0000E+01  0.0000E+00  5.1681E+01

       r.m.s.   4.0120E+00  1.9825E+02  7.1415E+02  1.2562E+03  1.8911E+03  0.0000E+00  5.4261E-04  0.0000E+00  0.0000E+00
      fluctu-   1.1583E+03  5.1822E+02  3.9568E+03  5.8333E+03  1.8862E+03  0.0000E+00  5.2586E-03  0.0000E+00  0.0000E+00
      ations    0.0000E+00  0.0000E+00  0.0000E+00  0.0000E+00  0.0000E+00  0.0000E+00  0.0000E+00  0.0000E+00  2.9087E+00
 ----------------------------------------------------------------------------------------------------------------------------------

 Extended energy:         2.7541E+03      r.m.s. fluctuations:    1.4211E+03

 ----------------------------------------------------------------------------------------------------------------------------------


            Approximate 3D Diffusion Coefficients and square root of MSDs

            atom         DC (10^-9 m^2 s^-1)   Sqrt[MSD] (Ang)

            Si                2.2446E-03          2.8699E-01
            O                 1.7945E-03          3.4776E-01
            C                 0.0000E+00          4.3584E+00
            H                 8.3526E-01          5.6472E+00


                Average pressure tensor  (katms)                              r.m.s. fluctuations

           4.9264E+01 -1.2823E-02  4.4791E-02                          4.1164E+00  1.4461E+00  2.3372E+00
          -1.2823E-02  5.3482E+01 -1.5501E-02                          1.4461E+00  4.3837E+00  2.4411E+00
           4.4791E-02 -1.5501E-02  5.2298E+01                          2.3372E+00  2.4411E+00  4.3968E+00

            trace/3    5.1681E+01



 time elapsed since job start:       63.934 sec



 *************************************************************************************************************************
 **************                                                                                             **************
 **************  Thank you for using the DL_POLY_4 package in your work.  Please, acknowledge our efforts   **************
 **************                                                                                             **************
 **************  by including the following references when publishing data obtained using DL_POLY_4:       **************
 **************                                                                                             **************
 **************  I.T. Todorov, W. Smith, K. Trachenko & M.T. Dove, `J. Mater. Chem.', 16, 1911-1918 (2006)  **************
 **************  I.J. Bush, I.T. Todorov & W. Smith, `Comp. Phys. Commun.', 175, 323-329 (2006)             **************
 **************                                                                                             **************
 *************************************************************************************************************************

