 ******************************************************************
 *************  stfc/ccp5  program  library  package  ** D ********
 *************  daresbury laboratory general purpose  *** L *******
 **         **  classical molecular dynamics program  **** \ ******
 ** DL_POLY **  authors:   i.t.todorov   &   w.smith  ***** P *****
 **         **  version:   4.09.1  /  november 2018   ****** O ****
 *************  execution on           1 process(es)  ******* L ***
 *************  contributors' list:                   ******** Y **
 *************  ------------------------------------  *************
 *************  i.j.bush, h.a.boateng, r.davidchak,   *************
 *************  m.a.seaton, a.v.brukhno, a.m.elena,   *************
 *************  s.l.daraszewicz,g.khara,s.t.murphy    *************
 ******************************************************************

 ******************************************************************
 **** birthday: Dec 16 2022 @ 15:29:49                         ****
 ****  machine: chip                                           ****
 ****  builder: Alistar OTTOCHIAN                              ****
 **** compiler: gfortran v8.5.0 20210514 (Red Hat 8.5.0-15)    ****
 ****      MPI: v3.1                                           ****
 **** MPI libs: Open MPI v3.0.0, package: Open MPI alistar@chi ****
 **** MPI libs: p Distribution, ident: 3.0.0, repo rev: v3.0.0 ****
 **** MPI libs: , Sep 12, 2017                                 ****
 **** executed: 2026-01-30  @  16:15:28.075  (GMT+01:00)       ****
 ******************************************************************

 ******************************************************************
 ****  ~~~~~~~~~~~~~~~~~~~~~~~~~~~~~~~~~~~~~~~~~~~~~~~~~~~~~~  ****
 ****  Please do cite `J. Mater. Chem.', 16, 1911-1918 (2006)  ****
 ****  ^^^^^^^^^^^^^^^^^^^^^^^^^^^^^^^^^^^^^^^^^^^^^^^^^^^^^^  ****
 ****  when publishing research data obtained using DL_POLY_4  ****
 ****  ^^^^^^^^^^^^^^^^^^^^^^^^^^^^^^^^^^^^^^^^^^^^^^^^^^^^^^  ****
 ******************************************************************

 HISTORY file is HISTORY.dlpolyhist

 I/O read method: parallel by using MPI-I/O (assumed)
 I/O readers (assumed)                   1
 I/O read batch size (assumed)     2000000
 I/O read buffer size (assumed)      20000
 I/O parallel read error checking off (assumed)

 I/O write method: parallel by using MPI-I/O (assumed)
 I/O write type: data sorting on (assumed)
 I/O writers (assumed)                   1
 I/O write batch size (assumed)    2000000
 I/O write buffer size (assumed)     20000
 I/O parallel write error checking off (assumed)

 *** warning - DD cutoff check: rcut=Max(rcut,rvdw,rmet,rkim,rcbnd,2.0_wp*rcter+1.0e-6_wp) ! ***

 warning issued     40

 *** warning - tentative cutoff reset to   6.500 Angstroms !!! ***



 node/domain decomposition (x,y,z):      1     1     1

 pure cutoff driven limit on largest possible decomposition:    18 nodes/domains (3,3,2)

 pure cutoff driven limit on largest balanced decomposition:     1 nodes/domains (1,1,1)

 cutoffs driven limit on largest possible decomposition:    18 nodes/domains (3,3,2)

 cutoffs driven limit on largest balanced decomposition:     1 nodes/domains (1,1,1)

 link-cell decomposition 1 (x,y,z):      3     3     2

 warning issued    100

 *** warning - primary link cell algorithm has a link cell dimension that is < 3 !!! ***
 *** DL_POLY_4 RUNNING IN LOW EFFICIENCY MODE !!! ***


 link-cell decomposition 2 (x,y,z):     10    10     6

 *** pre-scanning stage (set_bounds) DONE ***

 time elapsed since job start:        0.016 sec

 **********************************************************************************************************************************
 **********************************************************************************************************************************
 **********************************************************************************************************************************
 ************************     Silicalite simulation : Sauer model sans shell + Benzene                     ************************
 **********************************************************************************************************************************
 **********************************************************************************************************************************
 **********************************************************************************************************************************


 SIMULATION CONTROL PARAMETERS

 warning issued     35

 *** warning - DL_POLY_2/Classic directive 'delr - Verlet shell strip cutoff' defaulted to ***
 *** DL_POLY_4 directive 'rpad - real space cutoff padding option' ; rpad=Max(rpad,delr/4) !!! ***

 cutoff padding (Angs)               1.2500E-01

 vdw cutoff (Angs)                   6.5000E+00

 vdw force-shifting option on

 real space cutoff (Angs)            6.5000E+00

 Electrostatics : Smooth Particle Mesh Ewald
 Ewald sum precision                 1.0000E-06
 Ewald convergence parameter (A^-1)  5.0333E-01
 Ewald kmax1 kmax2 kmax3   (x2)    20   20   14
 DaFT adjusted kmax values (x2)    20   20   15
 B-spline interpolation order            8
 k-space evaluation interval (steps)     1

 density variation allowance (%)     1.0000E+01

 radomisation seeds supplied
 (seed1,seed2,seed3)               14    1 2022

 selected number of timesteps       100000

 simulation temperature (K)          3.0000E+02

 simulation pressure (katms)         0.0000E+00

 Integration : Velocity Verlet
 Ensemble : NVT Nose-Hoover
 thermostat relaxation time (ps)     1.0000E+00

 trajectory file option on
 trajectory file start                   0
 trajectory file interval             1000
 trajectory file info key                0

 data printing interval (steps)        100

 statistics file interval              100

 no strict option on
 *** Warning *** It skips printing inessential information in OUTPUT such as many warnings, FIELD
 *** wArning *** digested information and full iteration cycles information from CGM based routines!
 *** waRning *** However, it also assumes some, deemed safe, defaults for some specified as well as
 *** warNing *** unspecified by the user options, that may or may not be needed for the simulation to run!
 *** warnIng *** The defaults are deemed to deliver safer passage as well as optimal performance without
 *** warniNg *** sacrificing on accuracy!  While it may, by chance, help to pass previously failing runs
 *** warninG *** it may as well lead to a run failure without warnings!  Beware, avoid usage if uncertain!

 warning issued     36

 *** warning - DL_POLY_2/Classic directive 'mult(iple timestep)' defaulted to ***
 *** DL_POLY_4 directive 'infrequent k-space SPME evaluation' !!! ***


 clean start requested

 Extended Coulombic eXclusion : NO

 fixed simulation timestep (ps)      1.0000E-03

 data dumping interval (steps)        1000

 subcelling threshold density        5.0000E+01

 allocated job run time   (s)        1.0000E+05

 allocated job close time (s)        1.0000E+02


 SYSTEM SPECIFICATION

 energy units = kJ/mol


 number of molecular types               2


 molecular species type                  1

 name of species:             ZEOLITE ZSM5 (SILICALITE)               

 number of molecules                     1

 number of atoms/sites                 288

 atomic characteristics:

               site    name             mass         charge      repeat      freeze

                  1    Si            28.085500       4.000000        96         0
                 97    O             15.999400      -2.000000       192         0


 molecular species type                  2

 name of species:             BENZENE                                 

 number of molecules                     1

 number of atoms/sites                  12

 atomic characteristics:

               site    name             mass         charge      repeat      freeze

                  1    C             12.000000      -0.075000         6         0
                  7    H              1.008000       0.075000         6         0


 number of rigid bodies                  1

 rigid body details:

                  unit      size            indices

                     1        12         1         2         3         4         5         6         7         8         9        10
                                            11        12


 total number of molecules               2

 total number of sites                 300


 number of specified vdw potentials                5

       pair     atom 1  atom 2     key                              parameters

          1     Si      Si         buck             0.000000            0.300170            0.000000            0.000000            0.000000            0.000000            0.000000
          2     O       O          buck             0.000000            0.300170            0.000000            0.000000            0.000000            0.000000            0.000000
          3     Si      O          buck        149643.890000            0.300170            0.000000            0.000000            0.000000            0.000000            0.000000
          4     C       O          12-6       1335000.000000         1807.000000            0.000000            0.000000            0.000000            0.000000            0.000000
          5     H       O          12-6        159900.000000          510.800000            0.000000            0.000000            0.000000            0.000000            0.000000

 warning issued    120

 *** warning - unspecified atom-atom interactions set to zero !!! ***



 number of specified three-body potentials         1

    triplet     atom 1  atom 2  atom 3     key                      parameters

          1     O       Si      O          shrm       17.750400     109.466667       0.327690       0.327690       2.000000

 configuration file name: 

          Diffusion in Zeolites. ZSM5 (Silicate) Crystal Structure, Si(96)O(192) +


 selected image convention               2


 simulation cell vectors

       20.3183600000        0.0000000000        0.0000000000
        0.0000000000       20.1714600000        0.0000000000
        0.0000000000        0.0000000000       13.5858629500


 system volume            5568.17932579    

 *** all reading and connectivity checks DONE ***

 time elapsed since job start:        0.018 sec

 *** initialisation and haloing DONE ***

 time elapsed since job start:        0.019 sec

 //==============================================================\\
 ||                                                              ||
 ||           SUMMARY  OF  TOPOLOGICAL  DECOMPOSITION            ||
 ||                                                              ||
 ||--------------------------------------------------------------||
 ||  INTERACTION  OR  TYPE  |  GRAND TOTAL | Fully/Partly FROZEN ||
 ||-------------------------+--------------+---------------------||
 ||  all particles/sites    |         300  |  F            0     ||
 ||  free particles         |         288  |  F            0     ||
 ||  core-shell units       |           0  |  P            0     ||
 ||  constraint bond units  |           0  |  F            0     ||
 ||  PMF units              |           0  |  P         NONE     ||
 ||  rigid body units       |           1  |  F            0     ||
 ||  tethered atom units    |           0  |  F            0     ||
 ||  chemical bond units    |           0  |  F            0     ||
 ||  bond angle units       |           0  |  F            0     ||
 ||  dihedral angle units   |           0  |  F            0     ||
 ||  inversion angle units  |           0  |  F            0     ||
 \\==============================================================//


 *** bookkeeping DONE ***

 time elapsed since job start:        0.019 sec


 degrees of freedom break-down list
 ----------------------------------
 free particles                 864
 centre of mass                  -3
 non-periodicity                  0
 frozen free particles            0
 shell-pseudo                     0
 constrained                      0
 RB translational                 3
 RB rotational                    3
 ----------------------------------
 total (real)                   867

 *** temperature setting DONE ***

 time elapsed since job start:        0.020 sec


 sample of starting configuration on node zero

        i       x(i)        y(i)        z(i)       vx(i)       vy(i)       vz(i)


        1  1.4730E+00 -1.0837E+00 -4.4827E+00  4.5933E+00  1.5145E+00  4.0501E-01
       16  2.4713E+00  8.7049E+00 -6.4092E+00  5.2716E+00 -1.3794E+00 -3.6215E+00
       31 -6.2741E+00  2.6468E+00 -4.4810E+00 -4.4461E+00 -9.0610E-01 -3.4616E+00
       46 -3.7398E+00  6.5486E+00 -2.4718E+00  3.0051E+00  1.5488E+00  2.3605E+00
       61  7.7145E+00 -1.1333E+00  5.1512E-01 -3.9739E-01  1.0674E+00  2.5929E+00
       76  8.5453E+00 -6.5882E+00  2.2894E+00  5.3385E+00  3.0843E+00 -2.3282E-01
       91 -8.5965E+00 -2.5947E+00  2.1618E+00 -7.9262E-01 -2.5392E+00  2.9632E-01
      106 -5.9340E+00  8.8895E+00 -4.2166E-01  1.3664E+00 -4.6389E+00 -7.2297E-01
      121  2.6693E+00  2.9078E+00 -3.2592E+00 -2.9935E+00 -3.1727E+00 -1.9608E+00
      136  8.5363E+00  7.0068E+00 -1.0459E+00 -7.7038E+00 -5.2814E+00  1.2331E-01
      151 -1.4608E+00  1.0934E+00 -4.6261E+00  3.7387E+00 -7.2527E+00  7.8482E+00
      166 -3.7273E+00 -7.5298E+00 -1.7592E+00 -2.6794E+00 -6.6618E-01  1.5703E+00
      181 -9.9001E+00  2.8966E+00 -2.6548E+00  1.6815E+00  3.7945E+00 -1.7753E+00
      196  7.4963E+00  9.1911E+00  3.3953E+00 -9.8249E-01  5.2305E+00 -1.9525E+00
      211 -7.6045E+00  1.0725E+00  3.6447E+00 -3.3357E-01 -3.0481E+00 -2.4005E+00
      226 -3.9899E+00  6.7687E+00  6.2443E+00  6.0013E+00 -2.7718E+00  3.7986E+00
      241  6.8526E+00 -1.1248E+00  4.5092E+00 -5.4497E+00  3.6348E+00 -2.4671E-02
      256  8.3321E+00 -9.9013E+00  1.1942E+00  3.3133E+00 -5.5282E+00 -3.0019E+00
      271 -6.0414E+00 -2.4904E+00  5.4357E+00 -1.9064E+00  8.1201E-01  3.0838E+00
      286 -6.0678E+00  5.1972E+00  6.1045E+00  2.0457E+00  1.2110E+00  2.9968E+00



 time elapsed since job start:        0.020 sec

 forces evaluated at (re)start for VV integration...

 ----------------------------------------------------------------------------------------------------------------------------------

          step     eng_tot    temp_tot     eng_cfg     eng_src     eng_cou     eng_bnd     eng_ang     eng_dih     eng_tet
      time(ps)      eng_pv    temp_rot     vir_cfg     vir_src     vir_cou     vir_bnd     vir_ang     vir_con     vir_tet
      cpu  (s)      volume    temp_shl     eng_shl     vir_shl       alpha        beta       gamma     vir_pmf       press

 ----------------------------------------------------------------------------------------------------------------------------------
             0 -1.1993E+06  3.0000E+02 -1.2004E+06  2.8028E+05 -1.4807E+06  0.0000E+00  2.8395E-03  0.0000E+00  0.0000E+00
       0.00000 -1.1937E+06  3.0000E+02 -1.4581E+04 -1.4940E+06  1.4798E+06  0.0000E+00 -2.7618E-02  0.0000E+00  0.0000E+00
         0.033  5.5682E+03  0.0000E+00  0.0000E+00  0.0000E+00  9.0000E+01  9.0000E+01  9.0000E+01  0.0000E+00  1.6420E+01

       rolling  0.0000E+00  0.0000E+00  0.0000E+00  0.0000E+00  0.0000E+00  0.0000E+00  0.0000E+00  0.0000E+00  0.0000E+00
      averages  0.0000E+00  0.0000E+00  0.0000E+00  0.0000E+00  0.0000E+00  0.0000E+00  0.0000E+00  0.0000E+00  0.0000E+00
                0.0000E+00  0.0000E+00  0.0000E+00  0.0000E+00  0.0000E+00  0.0000E+00  0.0000E+00  0.0000E+00  0.0000E+00
 ----------------------------------------------------------------------------------------------------------------------------------
 ----------------------------------------------------------------------------------------------------------------------------------

          step     eng_tot    temp_tot     eng_cfg     eng_src     eng_cou     eng_bnd     eng_ang     eng_dih     eng_tet
      time(ps)      eng_pv    temp_rot     vir_cfg     vir_src     vir_cou     vir_bnd     vir_ang     vir_con     vir_tet
      cpu  (s)      volume    temp_shl     eng_shl     vir_shl       alpha        beta       gamma     vir_pmf       press

 ----------------------------------------------------------------------------------------------------------------------------------
             1 -1.1993E+06  3.1456E+02 -1.2005E+06  2.8042E+05 -1.4809E+06  0.0000E+00  2.8277E-03  0.0000E+00  0.0000E+00
       0.00100 -1.1936E+06  3.1019E+02 -1.5034E+04 -1.4947E+06  1.4800E+06  0.0000E+00 -2.7507E-02  0.0000E+00  0.0000E+00
         0.048  5.5682E+03  0.0000E+00  0.0000E+00  0.0000E+00  9.0000E+01  9.0000E+01  9.0000E+01  0.0000E+00  1.6966E+01

       rolling -1.1993E+06  3.1456E+02 -1.2005E+06  2.8042E+05 -1.4809E+06  0.0000E+00  2.8277E-03  0.0000E+00  0.0000E+00
      averages -1.1936E+06  3.1019E+02 -1.5034E+04 -1.4947E+06  1.4800E+06  0.0000E+00 -2.7507E-02  0.0000E+00  0.0000E+00
                5.5682E+03  0.0000E+00  0.0000E+00  0.0000E+00  9.0000E+01  9.0000E+01  9.0000E+01  0.0000E+00  1.6966E+01
 ----------------------------------------------------------------------------------------------------------------------------------

 cutoff padding reset from  0.12 Angs to  0.27 Angs

           100 -1.1993E+06  6.9318E+02 -1.2019E+06  2.9362E+05 -1.4955E+06  0.0000E+00  4.4471E-03  0.0000E+00  0.0000E+00
       0.10000 -1.1788E+06  1.9875E+03 -5.6801E+04 -1.5513E+06  1.4946E+06  0.0000E+00 -4.2951E-02  0.0000E+00  0.0000E+00
         1.122  5.5682E+03  0.0000E+00  0.0000E+00  0.0000E+00  9.0000E+01  9.0000E+01  9.0000E+01  0.0000E+00  6.0580E+01

       rolling -1.1993E+06  6.8246E+02 -1.2018E+06  2.9066E+05 -1.4925E+06  0.0000E+00  3.9007E-03  0.0000E+00  0.0000E+00
      averages -1.1819E+06  9.3769E+02 -4.7332E+04 -1.5387E+06  1.4916E+06  0.0000E+00 -3.7716E-02  0.0000E+00  0.0000E+00
                5.5682E+03  0.0000E+00  0.0000E+00  0.0000E+00  9.0000E+01  9.0000E+01  9.0000E+01  0.0000E+00  5.1239E+01
 ----------------------------------------------------------------------------------------------------------------------------------
           200 -1.1993E+06  6.8294E+02 -1.2019E+06  2.8928E+05 -1.4912E+06  0.0000E+00  3.6182E-03  0.0000E+00  0.0000E+00
       0.20000 -1.1837E+06  2.8444E+03 -4.2472E+04 -1.5327E+06  1.4903E+06  0.0000E+00 -3.5045E-02  0.0000E+00  0.0000E+00
         2.206  5.5682E+03  0.0000E+00  0.0000E+00  0.0000E+00  9.0000E+01  9.0000E+01  9.0000E+01  0.0000E+00  4.6428E+01

       rolling -1.1993E+06  6.5728E+02 -1.2018E+06  2.9007E+05 -1.4918E+06  0.0000E+00  3.8063E-03  0.0000E+00  0.0000E+00
      averages -1.1827E+06  1.2565E+03 -4.5539E+04 -1.5362E+06  1.4910E+06  0.0000E+00 -3.6842E-02  0.0000E+00  0.0000E+00
                5.5682E+03  0.0000E+00  0.0000E+00  0.0000E+00  9.0000E+01  9.0000E+01  9.0000E+01  0.0000E+00  4.9295E+01
 ----------------------------------------------------------------------------------------------------------------------------------
           300 -1.1993E+06  6.3267E+02 -1.2019E+06  2.8795E+05 -1.4898E+06  0.0000E+00  3.3111E-03  0.0000E+00  0.0000E+00
       0.30000 -1.1854E+06  1.1497E+03 -3.8064E+04 -1.5268E+06  1.4890E+06  0.0000E+00 -3.2055E-02  0.0000E+00  0.0000E+00
         3.295  5.5682E+03  0.0000E+00  0.0000E+00  0.0000E+00  9.0000E+01  9.0000E+01  9.0000E+01  0.0000E+00  4.1789E+01

       rolling -1.1993E+06  6.5380E+02 -1.2019E+06  2.8981E+05 -1.4917E+06  0.0000E+00  3.8362E-03  0.0000E+00  0.0000E+00
      averages -1.1832E+06  1.4582E+03 -4.4388E+04 -1.5350E+06  1.4908E+06  0.0000E+00 -3.7094E-02  0.0000E+00  0.0000E+00
                5.5682E+03  0.0000E+00  0.0000E+00  0.0000E+00  9.0000E+01  9.0000E+01  9.0000E+01  0.0000E+00  4.8136E+01
 ----------------------------------------------------------------------------------------------------------------------------------
           400 -1.1993E+06  6.2709E+02 -1.2020E+06  2.9166E+05 -1.4937E+06  0.0000E+00  4.3087E-03  0.0000E+00  0.0000E+00
       0.40000 -1.1815E+06  5.2521E+02 -5.0294E+04 -1.5429E+06  1.4928E+06  0.0000E+00 -4.1580E-02  0.0000E+00  0.0000E+00
         4.377  5.5682E+03  0.0000E+00  0.0000E+00  0.0000E+00  9.0000E+01  9.0000E+01  9.0000E+01  0.0000E+00  5.3764E+01

       rolling -1.1993E+06  6.2797E+02 -1.2020E+06  2.9036E+05 -1.4923E+06  0.0000E+00  3.8656E-03  0.0000E+00  0.0000E+00
      averages -1.1829E+06  1.8269E+03 -4.6017E+04 -1.5373E+06  1.4914E+06  0.0000E+00 -3.7386E-02  0.0000E+00  0.0000E+00
                5.5682E+03  0.0000E+00  0.0000E+00  0.0000E+00  9.0000E+01  9.0000E+01  9.0000E+01  0.0000E+00  4.9542E+01
 ----------------------------------------------------------------------------------------------------------------------------------
           500 -1.1993E+06  5.6064E+02 -1.2020E+06  2.9181E+05 -1.4938E+06  0.0000E+00  3.6759E-03  0.0000E+00  0.0000E+00
       0.50000 -1.1817E+06  2.0830E+03 -5.0908E+04 -1.5438E+06  1.4930E+06  0.0000E+00 -3.5578E-02  0.0000E+00  0.0000E+00
         5.461  5.5682E+03  0.0000E+00  0.0000E+00  0.0000E+00  9.0000E+01  9.0000E+01  9.0000E+01  0.0000E+00  5.3858E+01

       rolling -1.1993E+06  5.9485E+02 -1.2020E+06  2.9064E+05 -1.4927E+06  0.0000E+00  3.7194E-03  0.0000E+00  0.0000E+00
      averages -1.1827E+06  8.6414E+02 -4.7229E+04 -1.5387E+06  1.4918E+06  0.0000E+00 -3.5976E-02  0.0000E+00  0.0000E+00
                5.5682E+03  0.0000E+00  0.0000E+00  0.0000E+00  9.0000E+01  9.0000E+01  9.0000E+01  0.0000E+00  5.0521E+01
 ----------------------------------------------------------------------------------------------------------------------------------
           600 -1.1993E+06  5.5948E+02 -1.2023E+06  2.9049E+05 -1.4928E+06  0.0000E+00  3.3867E-03  0.0000E+00  0.0000E+00
       0.60000 -1.1834E+06  3.1092E+02 -4.6453E+04 -1.5381E+06  1.4919E+06  0.0000E+00 -3.2800E-02  0.0000E+00  0.0000E+00
         6.538  5.5682E+03  0.0000E+00  0.0000E+00  0.0000E+00  9.0000E+01  9.0000E+01  9.0000E+01  0.0000E+00  4.9523E+01

       rolling -1.1993E+06  5.6198E+02 -1.2022E+06  2.9077E+05 -1.4929E+06  0.0000E+00  3.6807E-03  0.0000E+00  0.0000E+00
      averages -1.1830E+06  6.9589E+02 -4.7503E+04 -1.5394E+06  1.4921E+06  0.0000E+00 -3.5594E-02  0.0000E+00  0.0000E+00
                5.5682E+03  0.0000E+00  0.0000E+00  0.0000E+00  9.0000E+01  9.0000E+01  9.0000E+01  0.0000E+00  5.0561E+01
 ----------------------------------------------------------------------------------------------------------------------------------
           700 -1.1993E+06  4.9122E+02 -1.2023E+06  2.9074E+05 -1.4930E+06  0.0000E+00  3.6881E-03  0.0000E+00  0.0000E+00
       0.70000 -1.1836E+06  3.5516E+01 -4.7261E+04 -1.5393E+06  1.4922E+06  0.0000E+00 -3.5689E-02  0.0000E+00  0.0000E+00
         7.621  5.5682E+03  0.0000E+00  0.0000E+00  0.0000E+00  9.0000E+01  9.0000E+01  9.0000E+01  0.0000E+00  4.9839E+01

       rolling -1.1993E+06  5.3390E+02 -1.2023E+06  2.9116E+05 -1.4935E+06  0.0000E+00  3.4763E-03  0.0000E+00  0.0000E+00
      averages -1.1829E+06  2.0089E+02 -4.8723E+04 -1.5411E+06  1.4926E+06  0.0000E+00 -3.3614E-02  0.0000E+00  0.0000E+00
                5.5682E+03  0.0000E+00  0.0000E+00  0.0000E+00  9.0000E+01  9.0000E+01  9.0000E+01  0.0000E+00  5.1571E+01
 ----------------------------------------------------------------------------------------------------------------------------------
 ----------------------------------------------------------------------------------------------------------------------------------

          step     eng_tot    temp_tot     eng_cfg     eng_src     eng_cou     eng_bnd     eng_ang     eng_dih     eng_tet
      time(ps)      eng_pv    temp_rot     vir_cfg     vir_src     vir_cou     vir_bnd     vir_ang     vir_con     vir_tet
      cpu  (s)      volume    temp_shl     eng_shl     vir_shl       alpha        beta       gamma     vir_pmf       press

 ----------------------------------------------------------------------------------------------------------------------------------
           800 -1.1993E+06  4.7545E+02 -1.2025E+06  2.9215E+05 -1.4947E+06  0.0000E+00  3.5056E-03  0.0000E+00  0.0000E+00
       0.80000 -1.1825E+06  7.3858E+01 -5.1480E+04 -1.5453E+06  1.4938E+06  0.0000E+00 -3.3949E-02  0.0000E+00  0.0000E+00
         8.702  5.5682E+03  0.0000E+00  0.0000E+00  0.0000E+00  9.0000E+01  9.0000E+01  9.0000E+01  0.0000E+00  5.3866E+01

       rolling -1.1993E+06  4.9288E+02 -1.2024E+06  2.9112E+05 -1.4936E+06  0.0000E+00  3.4820E-03  0.0000E+00  0.0000E+00
      averages -1.1834E+06  8.1675E+01 -4.8198E+04 -1.5408E+06  1.4927E+06  0.0000E+00 -3.3668E-02  0.0000E+00  0.0000E+00
                5.5682E+03  0.0000E+00  0.0000E+00  0.0000E+00  9.0000E+01  9.0000E+01  9.0000E+01  0.0000E+00  5.0770E+01
 ----------------------------------------------------------------------------------------------------------------------------------
           900 -1.1993E+06  4.3624E+02 -1.2026E+06  2.9164E+05 -1.4943E+06  0.0000E+00  3.2094E-03  0.0000E+00  0.0000E+00
       0.90000 -1.1835E+06  4.1949E+01 -4.9670E+04 -1.5431E+06  1.4934E+06  0.0000E+00 -3.0993E-02  0.0000E+00  0.0000E+00
         9.785  5.5682E+03  0.0000E+00  0.0000E+00  0.0000E+00  9.0000E+01  9.0000E+01  9.0000E+01  0.0000E+00  5.1813E+01

       rolling -1.1993E+06  4.4973E+02 -1.2026E+06  2.9137E+05 -1.4939E+06  0.0000E+00  3.4474E-03  0.0000E+00  0.0000E+00
      averages -1.1836E+06  5.2106E+01 -4.8885E+04 -1.5420E+06  1.4931E+06  0.0000E+00 -3.3334E-02  0.0000E+00  0.0000E+00
                5.5682E+03  0.0000E+00  0.0000E+00  0.0000E+00  9.0000E+01  9.0000E+01  9.0000E+01  0.0000E+00  5.1139E+01
 ----------------------------------------------------------------------------------------------------------------------------------
          1000 -1.1993E+06  3.7954E+02 -1.2027E+06  2.9114E+05 -1.4938E+06  0.0000E+00  3.2791E-03  0.0000E+00  0.0000E+00
       1.00000 -1.1845E+06  1.1872E+02 -4.7910E+04 -1.5409E+06  1.4930E+06  0.0000E+00 -3.1685E-02  0.0000E+00  0.0000E+00
        10.863  5.5682E+03  0.0000E+00  0.0000E+00  0.0000E+00  9.0000E+01  9.0000E+01  9.0000E+01  0.0000E+00  4.9684E+01

       rolling -1.1993E+06  4.1888E+02 -1.2027E+06  2.9160E+05 -1.4943E+06  0.0000E+00  3.2229E-03  0.0000E+00  0.0000E+00
      averages -1.1837E+06  6.8644E+01 -4.9547E+04 -1.5430E+06  1.4934E+06  0.0000E+00 -3.1158E-02  0.0000E+00  0.0000E+00
                5.5682E+03  0.0000E+00  0.0000E+00  0.0000E+00  9.0000E+01  9.0000E+01  9.0000E+01  0.0000E+00  5.1570E+01
 ----------------------------------------------------------------------------------------------------------------------------------
          1100 -1.1993E+06  3.4938E+02 -1.2028E+06  2.9199E+05 -1.4948E+06  0.0000E+00  3.0146E-03  0.0000E+00  0.0000E+00
       1.10000 -1.1838E+06  4.1358E+02 -5.0734E+04 -1.5447E+06  1.4940E+06  0.0000E+00 -2.9132E-02  0.0000E+00  0.0000E+00
        11.943  5.5682E+03  0.0000E+00  0.0000E+00  0.0000E+00  9.0000E+01  9.0000E+01  9.0000E+01  0.0000E+00  5.2234E+01

       rolling -1.1993E+06  3.8185E+02 -1.2028E+06  2.9163E+05 -1.4945E+06  0.0000E+00  3.1595E-03  0.0000E+00  0.0000E+00
      averages -1.1840E+06  2.5519E+02 -4.9628E+04 -1.5432E+06  1.4936E+06  0.0000E+00 -3.0538E-02  0.0000E+00  0.0000E+00
                5.5682E+03  0.0000E+00  0.0000E+00  0.0000E+00  9.0000E+01  9.0000E+01  9.0000E+01  0.0000E+00  5.1383E+01
 ----------------------------------------------------------------------------------------------------------------------------------
          1200 -1.1993E+06  3.1948E+02 -1.2030E+06  2.9242E+05 -1.4954E+06  0.0000E+00  3.2487E-03  0.0000E+00  0.0000E+00
       1.20000 -1.1836E+06  2.1819E+02 -5.2389E+04 -1.5468E+06  1.4945E+06  0.0000E+00 -3.1396E-02  0.0000E+00  0.0000E+00
        13.015  5.5682E+03  0.0000E+00  0.0000E+00  0.0000E+00  9.0000E+01  9.0000E+01  9.0000E+01  0.0000E+00  5.3651E+01

       rolling -1.1993E+06  3.4974E+02 -1.2030E+06  2.9271E+05 -1.4957E+06  0.0000E+00  3.0121E-03  0.0000E+00  0.0000E+00
      averages -1.1831E+06  3.6563E+02 -5.3187E+04 -1.5480E+06  1.4948E+06  0.0000E+00 -2.9092E-02  0.0000E+00  0.0000E+00
                5.5682E+03  0.0000E+00  0.0000E+00  0.0000E+00  9.0000E+01  9.0000E+01  9.0000E+01  0.0000E+00  5.4644E+01
 ----------------------------------------------------------------------------------------------------------------------------------
          1300 -1.1993E+06  2.8167E+02 -1.2031E+06  2.9160E+05 -1.4947E+06  0.0000E+00  2.8537E-03  0.0000E+00  0.0000E+00
       1.30000 -1.1848E+06  2.0239E+02 -4.9741E+04 -1.5434E+06  1.4938E+06  0.0000E+00 -2.7586E-02  0.0000E+00  0.0000E+00
        14.086  5.5682E+03  0.0000E+00  0.0000E+00  0.0000E+00  9.0000E+01  9.0000E+01  9.0000E+01  0.0000E+00  5.0786E+01

       rolling -1.1993E+06  3.1639E+02 -1.2031E+06  2.9247E+05 -1.4955E+06  0.0000E+00  2.9778E-03  0.0000E+00  0.0000E+00
      averages -1.1837E+06  1.6992E+02 -5.2573E+04 -1.5471E+06  1.4947E+06  0.0000E+00 -2.8772E-02  0.0000E+00  0.0000E+00
                5.5682E+03  0.0000E+00  0.0000E+00  0.0000E+00  9.0000E+01  9.0000E+01  9.0000E+01  0.0000E+00  5.3811E+01
 ----------------------------------------------------------------------------------------------------------------------------------
          1400 -1.1993E+06  2.7693E+02 -1.2032E+06  2.9213E+05 -1.4954E+06  0.0000E+00  2.6188E-03  0.0000E+00  0.0000E+00
       1.40000 -1.1845E+06  4.6621E+02 -5.1354E+04 -1.5458E+06  1.4945E+06  0.0000E+00 -2.5333E-02  0.0000E+00  0.0000E+00
        15.156  5.5682E+03  0.0000E+00  0.0000E+00  0.0000E+00  9.0000E+01  9.0000E+01  9.0000E+01  0.0000E+00  5.2329E+01

       rolling -1.1993E+06  2.8576E+02 -1.2032E+06  2.9237E+05 -1.4955E+06  0.0000E+00  2.9353E-03  0.0000E+00  0.0000E+00
      averages -1.1841E+06  3.0671E+02 -5.2175E+04 -1.5468E+06  1.4947E+06  0.0000E+00 -2.8361E-02  0.0000E+00  0.0000E+00
                5.5682E+03  0.0000E+00  0.0000E+00  0.0000E+00  9.0000E+01  9.0000E+01  9.0000E+01  0.0000E+00  5.3201E+01
 ----------------------------------------------------------------------------------------------------------------------------------
          1500 -1.1993E+06  2.4808E+02 -1.2033E+06  2.9276E+05 -1.4961E+06  0.0000E+00  2.9480E-03  0.0000E+00  0.0000E+00
       1.50000 -1.1841E+06  6.3195E+02 -5.3306E+04 -1.5485E+06  1.4952E+06  0.0000E+00 -2.8448E-02  0.0000E+00  0.0000E+00
        16.233  5.5682E+03  0.0000E+00  0.0000E+00  0.0000E+00  9.0000E+01  9.0000E+01  9.0000E+01  0.0000E+00  5.4036E+01

       rolling -1.1993E+06  2.6315E+02 -1.2033E+06  2.9234E+05 -1.4956E+06  0.0000E+00  2.8155E-03  0.0000E+00  0.0000E+00
      averages -1.1844E+06  6.4943E+02 -5.2002E+04 -1.5467E+06  1.4947E+06  0.0000E+00 -2.7206E-02  0.0000E+00  0.0000E+00
                5.5682E+03  0.0000E+00  0.0000E+00  0.0000E+00  9.0000E+01  9.0000E+01  9.0000E+01  0.0000E+00  5.2863E+01
 ----------------------------------------------------------------------------------------------------------------------------------
 ----------------------------------------------------------------------------------------------------------------------------------

          step     eng_tot    temp_tot     eng_cfg     eng_src     eng_cou     eng_bnd     eng_ang     eng_dih     eng_tet
      time(ps)      eng_pv    temp_rot     vir_cfg     vir_src     vir_cou     vir_bnd     vir_ang     vir_con     vir_tet
      cpu  (s)      volume    temp_shl     eng_shl     vir_shl       alpha        beta       gamma     vir_pmf       press

 ----------------------------------------------------------------------------------------------------------------------------------
          1600 -1.1993E+06  2.2443E+02 -1.2034E+06  2.9142E+05 -1.4948E+06  0.0000E+00  2.7502E-03  0.0000E+00  0.0000E+00
       1.60000 -1.1858E+06  1.2314E+02 -4.8844E+04 -1.5428E+06  1.4939E+06  0.0000E+00 -2.6584E-02  0.0000E+00  0.0000E+00
        17.307  5.5682E+03  0.0000E+00  0.0000E+00  0.0000E+00  9.0000E+01  9.0000E+01  9.0000E+01  0.0000E+00  4.9504E+01

       rolling -1.1993E+06  2.4015E+02 -1.2034E+06  2.9228E+05 -1.4956E+06  0.0000E+00  2.8186E-03  0.0000E+00  0.0000E+00
      averages -1.1847E+06  3.0302E+02 -5.1770E+04 -1.5465E+06  1.4948E+06  0.0000E+00 -2.7237E-02  0.0000E+00  0.0000E+00
                5.5682E+03  0.0000E+00  0.0000E+00  0.0000E+00  9.0000E+01  9.0000E+01  9.0000E+01  0.0000E+00  5.2480E+01
 ----------------------------------------------------------------------------------------------------------------------------------
          1700 -1.1993E+06  2.0804E+02 -1.2035E+06  2.9182E+05 -1.4953E+06  0.0000E+00  2.7513E-03  0.0000E+00  0.0000E+00
       1.70000 -1.1855E+06  4.9143E+01 -5.0122E+04 -1.5445E+06  1.4944E+06  0.0000E+00 -2.6600E-02  0.0000E+00  0.0000E+00
        18.383  5.5682E+03  0.0000E+00  0.0000E+00  0.0000E+00  9.0000E+01  9.0000E+01  9.0000E+01  0.0000E+00  5.0643E+01

       rolling -1.1993E+06  2.1812E+02 -1.2034E+06  2.9209E+05 -1.4955E+06  0.0000E+00  2.7302E-03  0.0000E+00  0.0000E+00
      averages -1.1851E+06  6.0865E+01 -5.1036E+04 -1.5457E+06  1.4946E+06  0.0000E+00 -2.6382E-02  0.0000E+00  0.0000E+00
                5.5682E+03  0.0000E+00  0.0000E+00  0.0000E+00  9.0000E+01  9.0000E+01  9.0000E+01  0.0000E+00  5.1611E+01
 ----------------------------------------------------------------------------------------------------------------------------------
          1800 -1.1993E+06  1.8880E+02 -1.2035E+06  2.9252E+05 -1.4960E+06  0.0000E+00  2.7052E-03  0.0000E+00  0.0000E+00
       1.80000 -1.1849E+06  2.0697E+02 -5.2454E+04 -1.5476E+06  1.4952E+06  0.0000E+00 -2.6145E-02  0.0000E+00  0.0000E+00
        19.463  5.5682E+03  0.0000E+00  0.0000E+00  0.0000E+00  9.0000E+01  9.0000E+01  9.0000E+01  0.0000E+00  5.2791E+01

       rolling -1.1993E+06  2.0327E+02 -1.2035E+06  2.9236E+05 -1.4959E+06  0.0000E+00  2.7239E-03  0.0000E+00  0.0000E+00
      averages -1.1850E+06  1.3297E+02 -5.1937E+04 -1.5469E+06  1.4950E+06  0.0000E+00 -2.6320E-02  0.0000E+00  0.0000E+00
                5.5682E+03  0.0000E+00  0.0000E+00  0.0000E+00  9.0000E+01  9.0000E+01  9.0000E+01  0.0000E+00  5.2388E+01
 ----------------------------------------------------------------------------------------------------------------------------------
          1900 -1.1993E+06  1.8347E+02 -1.2036E+06  2.9149E+05 -1.4951E+06  0.0000E+00  2.5703E-03  0.0000E+00  0.0000E+00
       1.90000 -1.1862E+06  9.1679E+01 -4.9042E+04 -1.5433E+06  1.4942E+06  0.0000E+00 -2.4880E-02  0.0000E+00  0.0000E+00
        20.538  5.5682E+03  0.0000E+00  0.0000E+00  0.0000E+00  9.0000E+01  9.0000E+01  9.0000E+01  0.0000E+00  4.9408E+01

       rolling -1.1993E+06  1.8375E+02 -1.2036E+06  2.9195E+05 -1.4955E+06  0.0000E+00  2.6826E-03  0.0000E+00  0.0000E+00
      averages -1.1856E+06  1.5896E+02 -5.0540E+04 -1.5452E+06  1.4946E+06  0.0000E+00 -2.5928E-02  0.0000E+00  0.0000E+00
                5.5682E+03  0.0000E+00  0.0000E+00  0.0000E+00  9.0000E+01  9.0000E+01  9.0000E+01  0.0000E+00  5.0879E+01
 ----------------------------------------------------------------------------------------------------------------------------------
          2000 -1.1993E+06  1.6016E+02 -1.2036E+06  2.9124E+05 -1.4949E+06  0.0000E+00  2.5732E-03  0.0000E+00  0.0000E+00
       2.00000 -1.1866E+06  2.3938E+01 -4.8260E+04 -1.5422E+06  1.4940E+06  0.0000E+00 -2.4897E-02  0.0000E+00  0.0000E+00
        21.615  5.5682E+03  0.0000E+00  0.0000E+00  0.0000E+00  9.0000E+01  9.0000E+01  9.0000E+01  0.0000E+00  4.8478E+01

       rolling -1.1993E+06  1.6951E+02 -1.2036E+06  2.9200E+05 -1.4956E+06  0.0000E+00  2.6637E-03  0.0000E+00  0.0000E+00
      averages -1.1857E+06  5.1934E+01 -5.0722E+04 -1.5455E+06  1.4947E+06  0.0000E+00 -2.5747E-02  0.0000E+00  0.0000E+00
                5.5682E+03  0.0000E+00  0.0000E+00  0.0000E+00  9.0000E+01  9.0000E+01  9.0000E+01  0.0000E+00  5.0959E+01
 ----------------------------------------------------------------------------------------------------------------------------------
          2100 -1.1993E+06  1.5110E+02 -1.2037E+06  2.9261E+05 -1.4963E+06  0.0000E+00  2.7104E-03  0.0000E+00  0.0000E+00
       2.10000 -1.1852E+06  6.7022E+01 -5.2689E+04 -1.5481E+06  1.4954E+06  0.0000E+00 -2.6189E-02  0.0000E+00  0.0000E+00
        22.705  5.5682E+03  0.0000E+00  0.0000E+00  0.0000E+00  9.0000E+01  9.0000E+01  9.0000E+01  0.0000E+00  5.2758E+01

       rolling -1.1993E+06  1.5716E+02 -1.2037E+06  2.9201E+05 -1.4957E+06  0.0000E+00  2.6310E-03  0.0000E+00  0.0000E+00
      averages -1.1858E+06  3.8758E+01 -5.0750E+04 -1.5455E+06  1.4948E+06  0.0000E+00 -2.5434E-02  0.0000E+00  0.0000E+00
                5.5682E+03  0.0000E+00  0.0000E+00  0.0000E+00  9.0000E+01  9.0000E+01  9.0000E+01  0.0000E+00  5.0899E+01
 ----------------------------------------------------------------------------------------------------------------------------------
          2200 -1.1993E+06  1.4824E+02 -1.2037E+06  2.9228E+05 -1.4960E+06  0.0000E+00  2.4101E-03  0.0000E+00  0.0000E+00
       2.20000 -1.1857E+06  1.0325E+02 -5.1570E+04 -1.5467E+06  1.4951E+06  0.0000E+00 -2.3286E-02  0.0000E+00  0.0000E+00
        23.781  5.5682E+03  0.0000E+00  0.0000E+00  0.0000E+00  9.0000E+01  9.0000E+01  9.0000E+01  0.0000E+00  5.1640E+01

       rolling -1.1993E+06  1.4592E+02 -1.2037E+06  2.9234E+05 -1.4960E+06  0.0000E+00  2.5840E-03  0.0000E+00  0.0000E+00
      averages -1.1856E+06  8.8749E+01 -5.1791E+04 -1.5470E+06  1.4952E+06  0.0000E+00 -2.4973E-02  0.0000E+00  0.0000E+00
                5.5682E+03  0.0000E+00  0.0000E+00  0.0000E+00  9.0000E+01  9.0000E+01  9.0000E+01  0.0000E+00  5.1841E+01
 ----------------------------------------------------------------------------------------------------------------------------------
          2300 -1.1993E+06  1.2400E+02 -1.2037E+06  2.9186E+05 -1.4956E+06  0.0000E+00  2.5573E-03  0.0000E+00  0.0000E+00
       2.30000 -1.1862E+06  5.2487E+00 -5.0307E+04 -1.5450E+06  1.4947E+06  0.0000E+00 -2.4715E-02  0.0000E+00  0.0000E+00
        24.432  5.5682E+03  0.0000E+00  0.0000E+00  0.0000E+00  9.0000E+01  9.0000E+01  9.0000E+01  0.0000E+00  5.0231E+01

       rolling -1.1993E+06  1.3707E+02 -1.2037E+06  2.9267E+05 -1.4964E+06  0.0000E+00  2.5515E-03  0.0000E+00  0.0000E+00
      averages -1.1853E+06  6.3480E+01 -5.2897E+04 -1.5484E+06  1.4955E+06  0.0000E+00 -2.4649E-02  0.0000E+00  0.0000E+00
                5.5682E+03  0.0000E+00  0.0000E+00  0.0000E+00  9.0000E+01  9.0000E+01  9.0000E+01  0.0000E+00  5.2863E+01
 ----------------------------------------------------------------------------------------------------------------------------------
 ----------------------------------------------------------------------------------------------------------------------------------

          step     eng_tot    temp_tot     eng_cfg     eng_src     eng_cou     eng_bnd     eng_ang     eng_dih     eng_tet
      time(ps)      eng_pv    temp_rot     vir_cfg     vir_src     vir_cou     vir_bnd     vir_ang     vir_con     vir_tet
      cpu  (s)      volume    temp_shl     eng_shl     vir_shl       alpha        beta       gamma     vir_pmf       press

 ----------------------------------------------------------------------------------------------------------------------------------
          2400 -1.1993E+06  1.2163E+02 -1.2038E+06  2.9252E+05 -1.4963E+06  0.0000E+00  2.4429E-03  0.0000E+00  0.0000E+00
       2.40000 -1.1856E+06  2.7431E+02 -5.2339E+04 -1.5477E+06  1.4954E+06  0.0000E+00 -2.3607E-02  0.0000E+00  0.0000E+00
        25.075  5.5682E+03  0.0000E+00  0.0000E+00  0.0000E+00  9.0000E+01  9.0000E+01  9.0000E+01  0.0000E+00  5.2201E+01

       rolling -1.1993E+06  1.2961E+02 -1.2038E+06  2.9267E+05 -1.4964E+06  0.0000E+00  2.5079E-03  0.0000E+00  0.0000E+00
      averages -1.1853E+06  1.6092E+02 -5.2932E+04 -1.5485E+06  1.4955E+06  0.0000E+00 -2.4232E-02  0.0000E+00  0.0000E+00
                5.5682E+03  0.0000E+00  0.0000E+00  0.0000E+00  9.0000E+01  9.0000E+01  9.0000E+01  0.0000E+00  5.2843E+01
 ----------------------------------------------------------------------------------------------------------------------------------
          2500 -1.1993E+06  1.1636E+02 -1.2038E+06  2.9317E+05 -1.4970E+06  0.0000E+00  2.3961E-03  0.0000E+00  0.0000E+00
       2.50000 -1.1849E+06  9.7884E+01 -5.4506E+04 -1.5506E+06  1.4961E+06  0.0000E+00 -2.3154E-02  0.0000E+00  0.0000E+00
        25.716  5.5682E+03  0.0000E+00  0.0000E+00  0.0000E+00  9.0000E+01  9.0000E+01  9.0000E+01  0.0000E+00  5.4294E+01

       rolling -1.1993E+06  1.2222E+02 -1.2038E+06  2.9303E+05 -1.4968E+06  0.0000E+00  2.4892E-03  0.0000E+00  0.0000E+00
      averages -1.1850E+06  1.8138E+02 -5.4074E+04 -1.5500E+06  1.4959E+06  0.0000E+00 -2.4043E-02  0.0000E+00  0.0000E+00
                5.5682E+03  0.0000E+00  0.0000E+00  0.0000E+00  9.0000E+01  9.0000E+01  9.0000E+01  0.0000E+00  5.3910E+01
 ----------------------------------------------------------------------------------------------------------------------------------
          2600 -1.1993E+06  1.1485E+02 -1.2038E+06  2.9262E+05 -1.4964E+06  0.0000E+00  2.3380E-03  0.0000E+00  0.0000E+00
       2.60000 -1.1856E+06  9.5401E+01 -5.2705E+04 -1.5483E+06  1.4956E+06  0.0000E+00 -2.2596E-02  0.0000E+00  0.0000E+00
        26.357  5.5682E+03  0.0000E+00  0.0000E+00  0.0000E+00  9.0000E+01  9.0000E+01  9.0000E+01  0.0000E+00  5.2517E+01

       rolling -1.1993E+06  1.1490E+02 -1.2038E+06  2.9314E+05 -1.4969E+06  0.0000E+00  2.4734E-03  0.0000E+00  0.0000E+00
      averages -1.1850E+06  8.4318E+01 -5.4424E+04 -1.5505E+06  1.4961E+06  0.0000E+00 -2.3886E-02  0.0000E+00  0.0000E+00
                5.5682E+03  0.0000E+00  0.0000E+00  0.0000E+00  9.0000E+01  9.0000E+01  9.0000E+01  0.0000E+00  5.4204E+01
 ----------------------------------------------------------------------------------------------------------------------------------
          2700 -1.1993E+06  1.1112E+02 -1.2038E+06  2.9292E+05 -1.4968E+06  0.0000E+00  2.4905E-03  0.0000E+00  0.0000E+00
       2.70000 -1.1853E+06  1.5992E+02 -5.3621E+04 -1.5495E+06  1.4959E+06  0.0000E+00 -2.4048E-02  0.0000E+00  0.0000E+00
        26.994  5.5682E+03  0.0000E+00  0.0000E+00  0.0000E+00  9.0000E+01  9.0000E+01  9.0000E+01  0.0000E+00  5.3388E+01

       rolling -1.1993E+06  1.1176E+02 -1.2038E+06  2.9311E+05 -1.4969E+06  0.0000E+00  2.4380E-03  0.0000E+00  0.0000E+00
      averages -1.1851E+06  1.2391E+02 -5.4281E+04 -1.5503E+06  1.4960E+06  0.0000E+00 -2.3545E-02  0.0000E+00  0.0000E+00
                5.5682E+03  0.0000E+00  0.0000E+00  0.0000E+00  9.0000E+01  9.0000E+01  9.0000E+01  0.0000E+00  5.4041E+01
 ----------------------------------------------------------------------------------------------------------------------------------
          2800 -1.1993E+06  1.0166E+02 -1.2038E+06  2.9344E+05 -1.4973E+06  0.0000E+00  2.4099E-03  0.0000E+00  0.0000E+00
       2.80000 -1.1848E+06  1.4258E+02 -5.5354E+04 -1.5518E+06  1.4964E+06  0.0000E+00 -2.3269E-02  0.0000E+00  0.0000E+00
        27.633  5.5682E+03  0.0000E+00  0.0000E+00  0.0000E+00  9.0000E+01  9.0000E+01  9.0000E+01  0.0000E+00  5.5021E+01

       rolling -1.1993E+06  1.0607E+02 -1.2038E+06  2.9333E+05 -1.4972E+06  0.0000E+00  2.4625E-03  0.0000E+00  0.0000E+00
      averages -1.1849E+06  1.7097E+02 -5.4986E+04 -1.5513E+06  1.4963E+06  0.0000E+00 -2.3776E-02  0.0000E+00  0.0000E+00
                5.5682E+03  0.0000E+00  0.0000E+00  0.0000E+00  9.0000E+01  9.0000E+01  9.0000E+01  0.0000E+00  5.4691E+01
 ----------------------------------------------------------------------------------------------------------------------------------
          2900 -1.1993E+06  1.0030E+02 -1.2038E+06  2.9334E+05 -1.4972E+06  0.0000E+00  2.4613E-03  0.0000E+00  0.0000E+00
       2.90000 -1.1849E+06  6.3486E+01 -5.4991E+04 -1.5513E+06  1.4963E+06  0.0000E+00 -2.3771E-02  0.0000E+00  0.0000E+00
        28.276  5.5682E+03  0.0000E+00  0.0000E+00  0.0000E+00  9.0000E+01  9.0000E+01  9.0000E+01  0.0000E+00  5.4658E+01

       rolling -1.1993E+06  1.0403E+02 -1.2038E+06  2.9319E+05 -1.4970E+06  0.0000E+00  2.4201E-03  0.0000E+00  0.0000E+00
      averages -1.1850E+06  9.1866E+01 -5.4540E+04 -1.5507E+06  1.4962E+06  0.0000E+00 -2.3372E-02  0.0000E+00  0.0000E+00
                5.5682E+03  0.0000E+00  0.0000E+00  0.0000E+00  9.0000E+01  9.0000E+01  9.0000E+01  0.0000E+00  5.4240E+01
 ----------------------------------------------------------------------------------------------------------------------------------
          3000 -1.1993E+06  1.0316E+02 -1.2039E+06  2.9303E+05 -1.4969E+06  0.0000E+00  2.4003E-03  0.0000E+00  0.0000E+00
       3.00000 -1.1852E+06  9.6994E+01 -5.4038E+04 -1.5501E+06  1.4960E+06  0.0000E+00 -2.3173E-02  0.0000E+00  0.0000E+00
        28.914  5.5682E+03  0.0000E+00  0.0000E+00  0.0000E+00  9.0000E+01  9.0000E+01  9.0000E+01  0.0000E+00  5.3742E+01

       rolling -1.1993E+06  1.0227E+02 -1.2039E+06  2.9332E+05 -1.4972E+06  0.0000E+00  2.3970E-03  0.0000E+00  0.0000E+00
      averages -1.1849E+06  7.1659E+01 -5.4978E+04 -1.5513E+06  1.4963E+06  0.0000E+00 -2.3146E-02  0.0000E+00  0.0000E+00
                5.5682E+03  0.0000E+00  0.0000E+00  0.0000E+00  9.0000E+01  9.0000E+01  9.0000E+01  0.0000E+00  5.4658E+01
 ----------------------------------------------------------------------------------------------------------------------------------
          3100 -1.1993E+06  1.0145E+02 -1.2039E+06  2.9336E+05 -1.4972E+06  0.0000E+00  2.2890E-03  0.0000E+00  0.0000E+00
       3.10000 -1.1849E+06  1.6166E+02 -5.5175E+04 -1.5515E+06  1.4964E+06  0.0000E+00 -2.2119E-02  0.0000E+00  0.0000E+00
        29.560  5.5682E+03  0.0000E+00  0.0000E+00  0.0000E+00  9.0000E+01  9.0000E+01  9.0000E+01  0.0000E+00  5.4844E+01

       rolling -1.1993E+06  1.0021E+02 -1.2039E+06  2.9344E+05 -1.4973E+06  0.0000E+00  2.4297E-03  0.0000E+00  0.0000E+00
      averages -1.1848E+06  1.4015E+02 -5.5361E+04 -1.5518E+06  1.4964E+06  0.0000E+00 -2.3457E-02  0.0000E+00  0.0000E+00
                5.5682E+03  0.0000E+00  0.0000E+00  0.0000E+00  9.0000E+01  9.0000E+01  9.0000E+01  0.0000E+00  5.5018E+01
 ----------------------------------------------------------------------------------------------------------------------------------
 ----------------------------------------------------------------------------------------------------------------------------------

          step     eng_tot    temp_tot     eng_cfg     eng_src     eng_cou     eng_bnd     eng_ang     eng_dih     eng_tet
      time(ps)      eng_pv    temp_rot     vir_cfg     vir_src     vir_cou     vir_bnd     vir_ang     vir_con     vir_tet
      cpu  (s)      volume    temp_shl     eng_shl     vir_shl       alpha        beta       gamma     vir_pmf       press

 ----------------------------------------------------------------------------------------------------------------------------------
          3200 -1.1993E+06  9.8450E+01 -1.2039E+06  2.9335E+05 -1.4972E+06  0.0000E+00  2.5604E-03  0.0000E+00  0.0000E+00
       3.20000 -1.1849E+06  5.4735E+01 -5.5153E+04 -1.5515E+06  1.4963E+06  0.0000E+00 -2.4716E-02  0.0000E+00  0.0000E+00
        30.200  5.5682E+03  0.0000E+00  0.0000E+00  0.0000E+00  9.0000E+01  9.0000E+01  9.0000E+01  0.0000E+00  5.4804E+01

       rolling -1.1993E+06  9.9184E+01 -1.2039E+06  2.9309E+05 -1.4970E+06  0.0000E+00  2.4428E-03  0.0000E+00  0.0000E+00
      averages -1.1852E+06  1.1459E+02 -5.4276E+04 -1.5503E+06  1.4961E+06  0.0000E+00 -2.3594E-02  0.0000E+00  0.0000E+00
                5.5682E+03  0.0000E+00  0.0000E+00  0.0000E+00  9.0000E+01  9.0000E+01  9.0000E+01  0.0000E+00  5.3947E+01
 ----------------------------------------------------------------------------------------------------------------------------------
          3300 -1.1993E+06  1.0060E+02 -1.2039E+06  2.9294E+05 -1.4968E+06  0.0000E+00  2.4758E-03  0.0000E+00  0.0000E+00
       3.30000 -1.1853E+06  8.3845E+01 -5.3835E+04 -1.5497E+06  1.4959E+06  0.0000E+00 -2.3900E-02  0.0000E+00  0.0000E+00
        30.842  5.5682E+03  0.0000E+00  0.0000E+00  0.0000E+00  9.0000E+01  9.0000E+01  9.0000E+01  0.0000E+00  5.3525E+01

       rolling -1.1993E+06  9.7889E+01 -1.2039E+06  2.9292E+05 -1.4968E+06  0.0000E+00  2.4246E-03  0.0000E+00  0.0000E+00
      averages -1.1853E+06  3.2914E+01 -5.3782E+04 -1.5496E+06  1.4959E+06  0.0000E+00 -2.3420E-02  0.0000E+00  0.0000E+00
                5.5682E+03  0.0000E+00  0.0000E+00  0.0000E+00  9.0000E+01  9.0000E+01  9.0000E+01  0.0000E+00  5.3456E+01
 ----------------------------------------------------------------------------------------------------------------------------------
          3400 -1.1993E+06  9.9460E+01 -1.2039E+06  2.9289E+05 -1.4968E+06  0.0000E+00  2.4527E-03  0.0000E+00  0.0000E+00
       3.40000 -1.1854E+06  1.8904E+02 -5.3672E+04 -1.5495E+06  1.4959E+06  0.0000E+00 -2.3683E-02  0.0000E+00  0.0000E+00
        31.484  5.5682E+03  0.0000E+00  0.0000E+00  0.0000E+00  9.0000E+01  9.0000E+01  9.0000E+01  0.0000E+00  5.3355E+01

       rolling -1.1993E+06  9.9194E+01 -1.2039E+06  2.9291E+05 -1.4968E+06  0.0000E+00  2.4479E-03  0.0000E+00  0.0000E+00
      averages -1.1854E+06  1.7992E+02 -5.3722E+04 -1.5496E+06  1.4959E+06  0.0000E+00 -2.3643E-02  0.0000E+00  0.0000E+00
                5.5682E+03  0.0000E+00  0.0000E+00  0.0000E+00  9.0000E+01  9.0000E+01  9.0000E+01  0.0000E+00  5.3402E+01
 ----------------------------------------------------------------------------------------------------------------------------------
          3500 -1.1993E+06  9.7173E+01 -1.2038E+06  2.9308E+05 -1.4969E+06  0.0000E+00  2.5394E-03  0.0000E+00  0.0000E+00
       3.50000 -1.1852E+06  1.1247E+02 -5.4336E+04 -1.5503E+06  1.4961E+06  0.0000E+00 -2.4515E-02  0.0000E+00  0.0000E+00
        32.128  5.5682E+03  0.0000E+00  0.0000E+00  0.0000E+00  9.0000E+01  9.0000E+01  9.0000E+01  0.0000E+00  5.3992E+01

       rolling -1.1993E+06  9.9375E+01 -1.2039E+06  2.9283E+05 -1.4967E+06  0.0000E+00  2.4404E-03  0.0000E+00  0.0000E+00
      averages -1.1854E+06  1.2485E+02 -5.3515E+04 -1.5493E+06  1.4958E+06  0.0000E+00 -2.3573E-02  0.0000E+00  0.0000E+00
                5.5682E+03  0.0000E+00  0.0000E+00  0.0000E+00  9.0000E+01  9.0000E+01  9.0000E+01  0.0000E+00  5.3201E+01
 ----------------------------------------------------------------------------------------------------------------------------------
          3600 -1.1993E+06  1.0619E+02 -1.2039E+06  2.9243E+05 -1.4963E+06  0.0000E+00  2.3813E-03  0.0000E+00  0.0000E+00
       3.60000 -1.1859E+06  1.3995E+02 -5.2076E+04 -1.5475E+06  1.4954E+06  0.0000E+00 -2.3015E-02  0.0000E+00  0.0000E+00
        32.769  5.5682E+03  0.0000E+00  0.0000E+00  0.0000E+00  9.0000E+01  9.0000E+01  9.0000E+01  0.0000E+00  5.1837E+01

       rolling -1.1993E+06  1.0225E+02 -1.2039E+06  2.9272E+05 -1.4966E+06  0.0000E+00  2.4495E-03  0.0000E+00  0.0000E+00
      averages -1.1855E+06  1.1917E+02 -5.3096E+04 -1.5488E+06  1.4957E+06  0.0000E+00 -2.3666E-02  0.0000E+00  0.0000E+00
                5.5682E+03  0.0000E+00  0.0000E+00  0.0000E+00  9.0000E+01  9.0000E+01  9.0000E+01  0.0000E+00  5.2811E+01
 ----------------------------------------------------------------------------------------------------------------------------------
          3700 -1.1993E+06  1.0192E+02 -1.2038E+06  2.9223E+05 -1.4961E+06  0.0000E+00  2.4335E-03  0.0000E+00  0.0000E+00
       3.70000 -1.1861E+06  1.1845E+02 -5.1484E+04 -1.5467E+06  1.4952E+06  0.0000E+00 -2.3524E-02  0.0000E+00  0.0000E+00
        33.411  5.5682E+03  0.0000E+00  0.0000E+00  0.0000E+00  9.0000E+01  9.0000E+01  9.0000E+01  0.0000E+00  5.1228E+01

       rolling -1.1993E+06  1.0396E+02 -1.2038E+06  2.9254E+05 -1.4964E+06  0.0000E+00  2.4813E-03  0.0000E+00  0.0000E+00
      averages -1.1857E+06  1.3522E+02 -5.2428E+04 -1.5479E+06  1.4955E+06  0.0000E+00 -2.3970E-02  0.0000E+00  0.0000E+00
                5.5682E+03  0.0000E+00  0.0000E+00  0.0000E+00  9.0000E+01  9.0000E+01  9.0000E+01  0.0000E+00  5.2167E+01
 ----------------------------------------------------------------------------------------------------------------------------------
          3800 -1.1993E+06  1.1110E+02 -1.2038E+06  2.9313E+05 -1.4970E+06  0.0000E+00  2.6671E-03  0.0000E+00  0.0000E+00
       3.80000 -1.1850E+06  1.9623E+02 -5.4404E+04 -1.5505E+06  1.4961E+06  0.0000E+00 -2.5743E-02  0.0000E+00  0.0000E+00
        34.052  5.5682E+03  0.0000E+00  0.0000E+00  0.0000E+00  9.0000E+01  9.0000E+01  9.0000E+01  0.0000E+00  5.4155E+01

       rolling -1.1993E+06  1.0738E+02 -1.2038E+06  2.9255E+05 -1.4964E+06  0.0000E+00  2.4885E-03  0.0000E+00  0.0000E+00
      averages -1.1857E+06  1.3496E+02 -5.2481E+04 -1.5480E+06  1.4955E+06  0.0000E+00 -2.4044E-02  0.0000E+00  0.0000E+00
                5.5682E+03  0.0000E+00  0.0000E+00  0.0000E+00  9.0000E+01  9.0000E+01  9.0000E+01  0.0000E+00  5.2243E+01
 ----------------------------------------------------------------------------------------------------------------------------------
          3900 -1.1993E+06  1.1553E+02 -1.2038E+06  2.9316E+05 -1.4970E+06  0.0000E+00  2.4577E-03  0.0000E+00  0.0000E+00
       3.90000 -1.1849E+06  1.0156E+02 -5.4570E+04 -1.5507E+06  1.4961E+06  0.0000E+00 -2.3741E-02  0.0000E+00  0.0000E+00
        34.694  5.5682E+03  0.0000E+00  0.0000E+00  0.0000E+00  9.0000E+01  9.0000E+01  9.0000E+01  0.0000E+00  5.4351E+01

       rolling -1.1993E+06  1.1018E+02 -1.2038E+06  2.9271E+05 -1.4965E+06  0.0000E+00  2.4717E-03  0.0000E+00  0.0000E+00
      averages -1.1855E+06  1.7329E+02 -5.3012E+04 -1.5487E+06  1.4956E+06  0.0000E+00 -2.3881E-02  0.0000E+00  0.0000E+00
                5.5682E+03  0.0000E+00  0.0000E+00  0.0000E+00  9.0000E+01  9.0000E+01  9.0000E+01  0.0000E+00  5.2784E+01
 ----------------------------------------------------------------------------------------------------------------------------------
 ----------------------------------------------------------------------------------------------------------------------------------

          step     eng_tot    temp_tot     eng_cfg     eng_src     eng_cou     eng_bnd     eng_ang     eng_dih     eng_tet
      time(ps)      eng_pv    temp_rot     vir_cfg     vir_src     vir_cou     vir_bnd     vir_ang     vir_con     vir_tet
      cpu  (s)      volume    temp_shl     eng_shl     vir_shl       alpha        beta       gamma     vir_pmf       press

 ----------------------------------------------------------------------------------------------------------------------------------
          4000 -1.1993E+06  1.2402E+02 -1.2038E+06  2.9311E+05 -1.4969E+06  0.0000E+00  2.4865E-03  0.0000E+00  0.0000E+00
       4.00000 -1.1849E+06  3.2910E+01 -5.4463E+04 -1.5504E+06  1.4960E+06  0.0000E+00 -2.4011E-02  0.0000E+00  0.0000E+00
        35.336  5.5682E+03  0.0000E+00  0.0000E+00  0.0000E+00  9.0000E+01  9.0000E+01  9.0000E+01  0.0000E+00  5.4308E+01

       rolling -1.1993E+06  1.1599E+02 -1.2038E+06  2.9301E+05 -1.4968E+06  0.0000E+00  2.4937E-03  0.0000E+00  0.0000E+00
      averages -1.1851E+06  4.1444E+01 -5.4085E+04 -1.5500E+06  1.4959E+06  0.0000E+00 -2.4084E-02  0.0000E+00  0.0000E+00
                5.5682E+03  0.0000E+00  0.0000E+00  0.0000E+00  9.0000E+01  9.0000E+01  9.0000E+01  0.0000E+00  5.3880E+01
 ----------------------------------------------------------------------------------------------------------------------------------
          4100 -1.1993E+06  1.2111E+02 -1.2038E+06  2.9366E+05 -1.4974E+06  0.0000E+00  2.7614E-03  0.0000E+00  0.0000E+00
       4.10000 -1.1843E+06  3.1466E+02 -5.6177E+04 -1.5527E+06  1.4965E+06  0.0000E+00 -2.6656E-02  0.0000E+00  0.0000E+00
        35.983  5.5682E+03  0.0000E+00  0.0000E+00  0.0000E+00  9.0000E+01  9.0000E+01  9.0000E+01  0.0000E+00  5.5962E+01

       rolling -1.1993E+06  1.1958E+02 -1.2038E+06  2.9302E+05 -1.4968E+06  0.0000E+00  2.4774E-03  0.0000E+00  0.0000E+00
      averages -1.1850E+06  1.5403E+02 -5.4139E+04 -1.5500E+06  1.4959E+06  0.0000E+00 -2.3929E-02  0.0000E+00  0.0000E+00
                5.5682E+03  0.0000E+00  0.0000E+00  0.0000E+00  9.0000E+01  9.0000E+01  9.0000E+01  0.0000E+00  5.3956E+01
 ----------------------------------------------------------------------------------------------------------------------------------
          4200 -1.1993E+06  1.2907E+02 -1.2037E+06  2.9291E+05 -1.4966E+06  0.0000E+00  2.4070E-03  0.0000E+00  0.0000E+00
       4.20000 -1.1851E+06  3.3732E+02 -5.3658E+04 -1.5494E+06  1.4958E+06  0.0000E+00 -2.3254E-02  0.0000E+00  0.0000E+00
        36.626  5.5682E+03  0.0000E+00  0.0000E+00  0.0000E+00  9.0000E+01  9.0000E+01  9.0000E+01  0.0000E+00  5.3547E+01

       rolling -1.1993E+06  1.2944E+02 -1.2038E+06  2.9305E+05 -1.4968E+06  0.0000E+00  2.4835E-03  0.0000E+00  0.0000E+00
      averages -1.1849E+06  3.6282E+02 -5.4133E+04 -1.5501E+06  1.4959E+06  0.0000E+00 -2.3986E-02  0.0000E+00  0.0000E+00
                5.5682E+03  0.0000E+00  0.0000E+00  0.0000E+00  9.0000E+01  9.0000E+01  9.0000E+01  0.0000E+00  5.4015E+01
 ----------------------------------------------------------------------------------------------------------------------------------
          4300 -1.1993E+06  1.4212E+02 -1.2037E+06  2.9265E+05 -1.4964E+06  0.0000E+00  2.5358E-03  0.0000E+00  0.0000E+00
       4.30000 -1.1853E+06  2.5875E+02 -5.2818E+04 -1.5483E+06  1.4955E+06  0.0000E+00 -2.4507E-02  0.0000E+00  0.0000E+00
        37.269  5.5682E+03  0.0000E+00  0.0000E+00  0.0000E+00  9.0000E+01  9.0000E+01  9.0000E+01  0.0000E+00  5.2817E+01

       rolling -1.1993E+06  1.3636E+02 -1.2037E+06  2.9281E+05 -1.4965E+06  0.0000E+00  2.5289E-03  0.0000E+00  0.0000E+00
      averages -1.1851E+06  2.9491E+02 -5.3352E+04 -1.5490E+06  1.4957E+06  0.0000E+00 -2.4430E-02  0.0000E+00  0.0000E+00
                5.5682E+03  0.0000E+00  0.0000E+00  0.0000E+00  9.0000E+01  9.0000E+01  9.0000E+01  0.0000E+00  5.3299E+01
 ----------------------------------------------------------------------------------------------------------------------------------
          4400 -1.1993E+06  1.5923E+02 -1.2037E+06  2.9265E+05 -1.4964E+06  0.0000E+00  2.6910E-03  0.0000E+00  0.0000E+00
       4.40000 -1.1852E+06  1.2340E+02 -5.2803E+04 -1.5483E+06  1.4955E+06  0.0000E+00 -2.5976E-02  0.0000E+00  0.0000E+00
        37.912  5.5682E+03  0.0000E+00  0.0000E+00  0.0000E+00  9.0000E+01  9.0000E+01  9.0000E+01  0.0000E+00  5.2926E+01

       rolling -1.1993E+06  1.4482E+02 -1.2037E+06  2.9275E+05 -1.4965E+06  0.0000E+00  2.5900E-03  0.0000E+00  0.0000E+00
      averages -1.1851E+06  2.1085E+02 -5.3184E+04 -1.5487E+06  1.4956E+06  0.0000E+00 -2.5022E-02  0.0000E+00  0.0000E+00
                5.5682E+03  0.0000E+00  0.0000E+00  0.0000E+00  9.0000E+01  9.0000E+01  9.0000E+01  0.0000E+00  5.3196E+01
 ----------------------------------------------------------------------------------------------------------------------------------
          4500 -1.1993E+06  1.6201E+02 -1.2036E+06  2.9263E+05 -1.4963E+06  0.0000E+00  2.5977E-03  0.0000E+00  0.0000E+00
       4.50000 -1.1851E+06  1.9341E+02 -5.2838E+04 -1.5482E+06  1.4954E+06  0.0000E+00 -2.5091E-02  0.0000E+00  0.0000E+00
        38.554  5.5682E+03  0.0000E+00  0.0000E+00  0.0000E+00  9.0000E+01  9.0000E+01  9.0000E+01  0.0000E+00  5.2979E+01

       rolling -1.1993E+06  1.5652E+02 -1.2037E+06  2.9272E+05 -1.4964E+06  0.0000E+00  2.5667E-03  0.0000E+00  0.0000E+00
      averages -1.1850E+06  7.4505E+01 -5.3155E+04 -1.5486E+06  1.4955E+06  0.0000E+00 -2.4796E-02  0.0000E+00  0.0000E+00
                5.5682E+03  0.0000E+00  0.0000E+00  0.0000E+00  9.0000E+01  9.0000E+01  9.0000E+01  0.0000E+00  5.3253E+01
 ----------------------------------------------------------------------------------------------------------------------------------
          4600 -1.1993E+06  1.8019E+02 -1.2036E+06  2.9272E+05 -1.4963E+06  0.0000E+00  2.5028E-03  0.0000E+00  0.0000E+00
       4.60000 -1.1848E+06  5.5587E+02 -5.3123E+04 -1.5486E+06  1.4955E+06  0.0000E+00 -2.4162E-02  0.0000E+00  0.0000E+00
        39.197  5.5682E+03  0.0000E+00  0.0000E+00  0.0000E+00  9.0000E+01  9.0000E+01  9.0000E+01  0.0000E+00  5.3378E+01

       rolling -1.1993E+06  1.6750E+02 -1.2036E+06  2.9263E+05 -1.4962E+06  0.0000E+00  2.6185E-03  0.0000E+00  0.0000E+00
      averages -1.1850E+06  4.4593E+02 -5.2844E+04 -1.5482E+06  1.4954E+06  0.0000E+00 -2.5302E-02  0.0000E+00  0.0000E+00
                5.5682E+03  0.0000E+00  0.0000E+00  0.0000E+00  9.0000E+01  9.0000E+01  9.0000E+01  0.0000E+00  5.3017E+01
 ----------------------------------------------------------------------------------------------------------------------------------
          4700 -1.1993E+06  1.8623E+02 -1.2035E+06  2.9191E+05 -1.4954E+06  0.0000E+00  2.7342E-03  0.0000E+00  0.0000E+00
       4.70000 -1.1856E+06  2.1294E+02 -5.0507E+04 -1.5450E+06  1.4946E+06  0.0000E+00 -2.6413E-02  0.0000E+00  0.0000E+00
        39.844  5.5682E+03  0.0000E+00  0.0000E+00  0.0000E+00  9.0000E+01  9.0000E+01  9.0000E+01  0.0000E+00  5.0862E+01

       rolling -1.1993E+06  1.8422E+02 -1.2036E+06  2.9269E+05 -1.4963E+06  0.0000E+00  2.6634E-03  0.0000E+00  0.0000E+00
      averages -1.1848E+06  3.6880E+02 -5.3084E+04 -1.5484E+06  1.4954E+06  0.0000E+00 -2.5727E-02  0.0000E+00  0.0000E+00
                5.5682E+03  0.0000E+00  0.0000E+00  0.0000E+00  9.0000E+01  9.0000E+01  9.0000E+01  0.0000E+00  5.3372E+01
 ----------------------------------------------------------------------------------------------------------------------------------
 ----------------------------------------------------------------------------------------------------------------------------------

          step     eng_tot    temp_tot     eng_cfg     eng_src     eng_cou     eng_bnd     eng_ang     eng_dih     eng_tet
      time(ps)      eng_pv    temp_rot     vir_cfg     vir_src     vir_cou     vir_bnd     vir_ang     vir_con     vir_tet
      cpu  (s)      volume    temp_shl     eng_shl     vir_shl       alpha        beta       gamma     vir_pmf       press

 ----------------------------------------------------------------------------------------------------------------------------------
          4800 -1.1993E+06  2.0708E+02 -1.2035E+06  2.9149E+05 -1.4950E+06  0.0000E+00  2.4967E-03  0.0000E+00  0.0000E+00
       4.80000 -1.1858E+06  1.6611E+02 -4.9241E+04 -1.5433E+06  1.4941E+06  0.0000E+00 -2.4141E-02  0.0000E+00  0.0000E+00
        40.490  5.5682E+03  0.0000E+00  0.0000E+00  0.0000E+00  9.0000E+01  9.0000E+01  9.0000E+01  0.0000E+00  4.9769E+01

       rolling -1.1993E+06  1.9852E+02 -1.2035E+06  2.9217E+05 -1.4957E+06  0.0000E+00  2.6978E-03  0.0000E+00  0.0000E+00
      averages -1.1852E+06  1.9642E+02 -5.1396E+04 -1.5462E+06  1.4948E+06  0.0000E+00 -2.6071E-02  0.0000E+00  0.0000E+00
                5.5682E+03  0.0000E+00  0.0000E+00  0.0000E+00  9.0000E+01  9.0000E+01  9.0000E+01  0.0000E+00  5.1822E+01
 ----------------------------------------------------------------------------------------------------------------------------------
          4900 -1.1993E+06  2.2612E+02 -1.2034E+06  2.9276E+05 -1.4962E+06  0.0000E+00  2.9348E-03  0.0000E+00  0.0000E+00
       4.90000 -1.1843E+06  1.6167E+02 -5.3309E+04 -1.5486E+06  1.4953E+06  0.0000E+00 -2.8370E-02  0.0000E+00  0.0000E+00
        41.136  5.5682E+03  0.0000E+00  0.0000E+00  0.0000E+00  9.0000E+01  9.0000E+01  9.0000E+01  0.0000E+00  5.3895E+01

       rolling -1.1993E+06  2.1700E+02 -1.2034E+06  2.9198E+05 -1.4954E+06  0.0000E+00  2.7634E-03  0.0000E+00  0.0000E+00
      averages -1.1852E+06  1.4891E+02 -5.0785E+04 -1.5453E+06  1.4945E+06  0.0000E+00 -2.6716E-02  0.0000E+00  0.0000E+00
                5.5682E+03  0.0000E+00  0.0000E+00  0.0000E+00  9.0000E+01  9.0000E+01  9.0000E+01  0.0000E+00  5.1354E+01
 ----------------------------------------------------------------------------------------------------------------------------------
          5000 -1.1993E+06  2.3441E+02 -1.2033E+06  2.9149E+05 -1.4948E+06  0.0000E+00  2.9043E-03  0.0000E+00  0.0000E+00
       5.00000 -1.1855E+06  3.0416E+02 -4.9048E+04 -1.5429E+06  1.4939E+06  0.0000E+00 -2.8076E-02  0.0000E+00  0.0000E+00
        41.781  5.5682E+03  0.0000E+00  0.0000E+00  0.0000E+00  9.0000E+01  9.0000E+01  9.0000E+01  0.0000E+00  4.9770E+01

       rolling -1.1993E+06  2.3507E+02 -1.2034E+06  2.9206E+05 -1.4954E+06  0.0000E+00  2.8575E-03  0.0000E+00  0.0000E+00
      averages -1.1850E+06  2.3194E+02 -5.0961E+04 -1.5455E+06  1.4945E+06  0.0000E+00 -2.7620E-02  0.0000E+00  0.0000E+00
                5.5682E+03  0.0000E+00  0.0000E+00  0.0000E+00  9.0000E+01  9.0000E+01  9.0000E+01  0.0000E+00  5.1653E+01
 ----------------------------------------------------------------------------------------------------------------------------------
          5100 -1.1993E+06  2.5334E+02 -1.2032E+06  2.9087E+05 -1.4940E+06  0.0000E+00  2.9526E-03  0.0000E+00  0.0000E+00
       5.10000 -1.1859E+06  1.8682E+02 -4.7242E+04 -1.5403E+06  1.4932E+06  0.0000E+00 -2.8574E-02  0.0000E+00  0.0000E+00
        42.435  5.5682E+03  0.0000E+00  0.0000E+00  0.0000E+00  9.0000E+01  9.0000E+01  9.0000E+01  0.0000E+00  4.8135E+01

       rolling -1.1993E+06  2.6303E+02 -1.2033E+06  2.9170E+05 -1.4950E+06  0.0000E+00  2.8697E-03  0.0000E+00  0.0000E+00
      averages -1.1851E+06  2.8217E+02 -4.9913E+04 -1.5440E+06  1.4941E+06  0.0000E+00 -2.7741E-02  0.0000E+00  0.0000E+00
                5.5682E+03  0.0000E+00  0.0000E+00  0.0000E+00  9.0000E+01  9.0000E+01  9.0000E+01  0.0000E+00  5.0821E+01
 ----------------------------------------------------------------------------------------------------------------------------------
          5200 -1.1993E+06  2.9459E+02 -1.2031E+06  2.9239E+05 -1.4955E+06  0.0000E+00  3.0912E-03  0.0000E+00  0.0000E+00
       5.20000 -1.1840E+06  2.2032E+02 -5.2227E+04 -1.5468E+06  1.4946E+06  0.0000E+00 -2.9839E-02  0.0000E+00  0.0000E+00
        43.083  5.5682E+03  0.0000E+00  0.0000E+00  0.0000E+00  9.0000E+01  9.0000E+01  9.0000E+01  0.0000E+00  5.3316E+01

       rolling -1.1993E+06  2.8473E+02 -1.2032E+06  2.9178E+05 -1.4950E+06  0.0000E+00  2.9170E-03  0.0000E+00  0.0000E+00
      averages -1.1847E+06  1.2998E+02 -5.0290E+04 -1.5443E+06  1.4941E+06  0.0000E+00 -2.8203E-02  0.0000E+00  0.0000E+00
                5.5682E+03  0.0000E+00  0.0000E+00  0.0000E+00  9.0000E+01  9.0000E+01  9.0000E+01  0.0000E+00  5.1348E+01
 ----------------------------------------------------------------------------------------------------------------------------------
          5300 -1.1993E+06  3.2197E+02 -1.2030E+06  2.9211E+05 -1.4951E+06  0.0000E+00  3.0268E-03  0.0000E+00  0.0000E+00
       5.30000 -1.1840E+06  2.2098E+02 -5.1309E+04 -1.5455E+06  1.4942E+06  0.0000E+00 -2.9275E-02  0.0000E+00  0.0000E+00
        43.732  5.5682E+03  0.0000E+00  0.0000E+00  0.0000E+00  9.0000E+01  9.0000E+01  9.0000E+01  0.0000E+00  5.2609E+01

       rolling -1.1993E+06  3.0849E+02 -1.2031E+06  2.9204E+05 -1.4951E+06  0.0000E+00  3.0970E-03  0.0000E+00  0.0000E+00
      averages -1.1842E+06  2.6063E+02 -5.1121E+04 -1.5453E+06  1.4942E+06  0.0000E+00 -2.9925E-02  0.0000E+00  0.0000E+00
                5.5682E+03  0.0000E+00  0.0000E+00  0.0000E+00  9.0000E+01  9.0000E+01  9.0000E+01  0.0000E+00  5.2329E+01
 ----------------------------------------------------------------------------------------------------------------------------------
          5400 -1.1993E+06  3.6561E+02 -1.2029E+06  2.9079E+05 -1.4937E+06  0.0000E+00  2.9831E-03  0.0000E+00  0.0000E+00
       5.40000 -1.1851E+06  2.6639E+02 -4.6866E+04 -1.5397E+06  1.4929E+06  0.0000E+00 -2.8842E-02  0.0000E+00  0.0000E+00
        44.381  5.5682E+03  0.0000E+00  0.0000E+00  0.0000E+00  9.0000E+01  9.0000E+01  9.0000E+01  0.0000E+00  4.8557E+01

       rolling -1.1993E+06  3.4701E+02 -1.2030E+06  2.9172E+05 -1.4947E+06  0.0000E+00  3.0380E-03  0.0000E+00  0.0000E+00
      averages -1.1843E+06  2.6948E+02 -4.9968E+04 -1.5438E+06  1.4938E+06  0.0000E+00 -2.9365E-02  0.0000E+00  0.0000E+00
                5.5682E+03  0.0000E+00  0.0000E+00  0.0000E+00  9.0000E+01  9.0000E+01  9.0000E+01  0.0000E+00  5.1469E+01
 ----------------------------------------------------------------------------------------------------------------------------------
          5500 -1.1993E+06  3.9499E+02 -1.2028E+06  2.9231E+05 -1.4951E+06  0.0000E+00  3.6049E-03  0.0000E+00  0.0000E+00
       5.50000 -1.1832E+06  2.8929E+02 -5.1840E+04 -1.5461E+06  1.4943E+06  0.0000E+00 -3.4790E-02  0.0000E+00  0.0000E+00
        45.030  5.5682E+03  0.0000E+00  0.0000E+00  0.0000E+00  9.0000E+01  9.0000E+01  9.0000E+01  0.0000E+00  5.3645E+01

       rolling -1.1993E+06  3.7686E+02 -1.2029E+06  2.9161E+05 -1.4945E+06  0.0000E+00  3.2042E-03  0.0000E+00  0.0000E+00
      averages -1.1841E+06  2.6154E+02 -4.9505E+04 -1.5431E+06  1.4936E+06  0.0000E+00 -3.0968E-02  0.0000E+00  0.0000E+00
                5.5682E+03  0.0000E+00  0.0000E+00  0.0000E+00  9.0000E+01  9.0000E+01  9.0000E+01  0.0000E+00  5.1227E+01
 ----------------------------------------------------------------------------------------------------------------------------------
 ----------------------------------------------------------------------------------------------------------------------------------

          step     eng_tot    temp_tot     eng_cfg     eng_src     eng_cou     eng_bnd     eng_ang     eng_dih     eng_tet
      time(ps)      eng_pv    temp_rot     vir_cfg     vir_src     vir_cou     vir_bnd     vir_ang     vir_con     vir_tet
      cpu  (s)      volume    temp_shl     eng_shl     vir_shl       alpha        beta       gamma     vir_pmf       press

 ----------------------------------------------------------------------------------------------------------------------------------
          5600 -1.1993E+06  4.5912E+02 -1.2028E+06  2.9081E+05 -1.4936E+06  0.0000E+00  3.1472E-03  0.0000E+00  0.0000E+00
       5.60000 -1.1844E+06  3.9095E+02 -4.6970E+04 -1.5397E+06  1.4927E+06  0.0000E+00 -3.0434E-02  0.0000E+00  0.0000E+00
        45.678  5.5682E+03  0.0000E+00  0.0000E+00  0.0000E+00  9.0000E+01  9.0000E+01  9.0000E+01  0.0000E+00  4.9318E+01

       rolling -1.1993E+06  4.1155E+02 -1.2027E+06  2.9169E+05 -1.4944E+06  0.0000E+00  3.3223E-03  0.0000E+00  0.0000E+00
      averages -1.1837E+06  3.3969E+02 -4.9782E+04 -1.5433E+06  1.4936E+06  0.0000E+00 -3.2101E-02  0.0000E+00  0.0000E+00
                5.5682E+03  0.0000E+00  0.0000E+00  0.0000E+00  9.0000E+01  9.0000E+01  9.0000E+01  0.0000E+00  5.1742E+01
 ----------------------------------------------------------------------------------------------------------------------------------
          5700 -1.1993E+06  4.7504E+02 -1.2026E+06  2.8995E+05 -1.4925E+06  0.0000E+00  3.3377E-03  0.0000E+00  0.0000E+00
       5.70000 -1.1850E+06  4.1026E+02 -4.4171E+04 -1.5358E+06  1.4916E+06  0.0000E+00 -3.2316E-02  0.0000E+00  0.0000E+00
        46.324  5.5682E+03  0.0000E+00  0.0000E+00  0.0000E+00  9.0000E+01  9.0000E+01  9.0000E+01  0.0000E+00  4.6685E+01

       rolling -1.1993E+06  4.4625E+02 -1.2026E+06  2.9069E+05 -1.4933E+06  0.0000E+00  3.3722E-03  0.0000E+00  0.0000E+00
      averages -1.1844E+06  4.3820E+02 -4.6562E+04 -1.5390E+06  1.4924E+06  0.0000E+00 -3.2628E-02  0.0000E+00  0.0000E+00
                5.5682E+03  0.0000E+00  0.0000E+00  0.0000E+00  9.0000E+01  9.0000E+01  9.0000E+01  0.0000E+00  4.8826E+01
 ----------------------------------------------------------------------------------------------------------------------------------
          5800 -1.1993E+06  4.8510E+02 -1.2023E+06  2.9049E+05 -1.4928E+06  0.0000E+00  3.8074E-03  0.0000E+00  0.0000E+00
       5.80000 -1.1841E+06  6.2666E+02 -4.5979E+04 -1.5379E+06  1.4920E+06  0.0000E+00 -3.6802E-02  0.0000E+00  0.0000E+00
        46.971  5.5682E+03  0.0000E+00  0.0000E+00  0.0000E+00  9.0000E+01  9.0000E+01  9.0000E+01  0.0000E+00  4.8523E+01

       rolling -1.1993E+06  4.8767E+02 -1.2025E+06  2.9062E+05 -1.4931E+06  0.0000E+00  3.5061E-03  0.0000E+00  0.0000E+00
      averages -1.1841E+06  4.6052E+02 -4.6402E+04 -1.5386E+06  1.4922E+06  0.0000E+00 -3.3911E-02  0.0000E+00  0.0000E+00
                5.5682E+03  0.0000E+00  0.0000E+00  0.0000E+00  9.0000E+01  9.0000E+01  9.0000E+01  0.0000E+00  4.8961E+01
 ----------------------------------------------------------------------------------------------------------------------------------
          5900 -1.1993E+06  5.2807E+02 -1.2022E+06  2.9072E+05 -1.4929E+06  0.0000E+00  3.6461E-03  0.0000E+00  0.0000E+00
       5.90000 -1.1834E+06  6.6772E+02 -4.7038E+04 -1.5390E+06  1.4921E+06  0.0000E+00 -3.5293E-02  0.0000E+00  0.0000E+00
        47.620  5.5682E+03  0.0000E+00  0.0000E+00  0.0000E+00  9.0000E+01  9.0000E+01  9.0000E+01  0.0000E+00  4.9866E+01

       rolling -1.1993E+06  5.2431E+02 -1.2023E+06  2.9093E+05 -1.4933E+06  0.0000E+00  3.5157E-03  0.0000E+00  0.0000E+00
      averages -1.1834E+06  7.7934E+02 -4.7455E+04 -1.5398E+06  1.4924E+06  0.0000E+00 -3.3999E-02  0.0000E+00  0.0000E+00
                5.5682E+03  0.0000E+00  0.0000E+00  0.0000E+00  9.0000E+01  9.0000E+01  9.0000E+01  0.0000E+00  5.0245E+01
 ----------------------------------------------------------------------------------------------------------------------------------
          6000 -1.1993E+06  5.7798E+02 -1.2021E+06  2.8971E+05 -1.4918E+06  0.0000E+00  3.5196E-03  0.0000E+00  0.0000E+00
       6.00000 -1.1842E+06  1.8932E+03 -4.3424E+04 -1.5344E+06  1.4910E+06  0.0000E+00 -3.4033E-02  0.0000E+00  0.0000E+00
        48.267  5.5682E+03  0.0000E+00  0.0000E+00  0.0000E+00  9.0000E+01  9.0000E+01  9.0000E+01  0.0000E+00  4.6643E+01

       rolling -1.1993E+06  5.6243E+02 -1.2022E+06  2.9092E+05 -1.4931E+06  0.0000E+00  3.5932E-03  0.0000E+00  0.0000E+00
      averages -1.1830E+06  9.7278E+02 -4.7617E+04 -1.5398E+06  1.4923E+06  0.0000E+00 -3.4751E-02  0.0000E+00  0.0000E+00
                5.5682E+03  0.0000E+00  0.0000E+00  0.0000E+00  9.0000E+01  9.0000E+01  9.0000E+01  0.0000E+00  5.0669E+01
 ----------------------------------------------------------------------------------------------------------------------------------
          6100 -1.1993E+06  6.1838E+02 -1.2021E+06  2.9121E+05 -1.4933E+06  0.0000E+00  3.6711E-03  0.0000E+00  0.0000E+00
       6.10000 -1.1821E+06  1.1588E+03 -4.8600E+04 -1.5409E+06  1.4924E+06  0.0000E+00 -3.5477E-02  0.0000E+00  0.0000E+00
        48.922  5.5682E+03  0.0000E+00  0.0000E+00  0.0000E+00  9.0000E+01  9.0000E+01  9.0000E+01  0.0000E+00  5.2024E+01

       rolling -1.1993E+06  5.9620E+02 -1.2021E+06  2.9059E+05 -1.4927E+06  0.0000E+00  3.7698E-03  0.0000E+00  0.0000E+00
      averages -1.1831E+06  1.9080E+03 -4.6371E+04 -1.5382E+06  1.4918E+06  0.0000E+00 -3.6453E-02  0.0000E+00  0.0000E+00
                5.5682E+03  0.0000E+00  0.0000E+00  0.0000E+00  9.0000E+01  9.0000E+01  9.0000E+01  0.0000E+00  4.9662E+01
 ----------------------------------------------------------------------------------------------------------------------------------
          6200 -1.1993E+06  6.0939E+02 -1.2018E+06  2.9013E+05 -1.4920E+06  0.0000E+00  3.9666E-03  0.0000E+00  0.0000E+00
       6.20000 -1.1832E+06  9.3873E+02 -4.4932E+04 -1.5360E+06  1.4911E+06  0.0000E+00 -3.8436E-02  0.0000E+00  0.0000E+00
        49.572  5.5682E+03  0.0000E+00  0.0000E+00  0.0000E+00  9.0000E+01  9.0000E+01  9.0000E+01  0.0000E+00  4.8368E+01

       rolling -1.1993E+06  6.2135E+02 -1.2020E+06  2.9021E+05 -1.4922E+06  0.0000E+00  3.8357E-03  0.0000E+00  0.0000E+00
      averages -1.1831E+06  7.7016E+02 -4.5288E+04 -1.5365E+06  1.4913E+06  0.0000E+00 -3.7121E-02  0.0000E+00  0.0000E+00
                5.5682E+03  0.0000E+00  0.0000E+00  0.0000E+00  9.0000E+01  9.0000E+01  9.0000E+01  0.0000E+00  4.8806E+01
 ----------------------------------------------------------------------------------------------------------------------------------
          6300 -1.1993E+06  6.4648E+02 -1.2018E+06  2.9014E+05 -1.4920E+06  0.0000E+00  3.9413E-03  0.0000E+00  0.0000E+00
       6.30000 -1.1829E+06  1.5671E+03 -4.5149E+04 -1.5361E+06  1.4911E+06  0.0000E+00 -3.8121E-02  0.0000E+00  0.0000E+00
        50.224  5.5682E+03  0.0000E+00  0.0000E+00  0.0000E+00  9.0000E+01  9.0000E+01  9.0000E+01  0.0000E+00  4.8827E+01

       rolling -1.1993E+06  6.5483E+02 -1.2019E+06  2.9030E+05 -1.4922E+06  0.0000E+00  3.8780E-03  0.0000E+00  0.0000E+00
      averages -1.1827E+06  7.3839E+02 -4.5903E+04 -1.5370E+06  1.4913E+06  0.0000E+00 -3.7526E-02  0.0000E+00  0.0000E+00
                5.5682E+03  0.0000E+00  0.0000E+00  0.0000E+00  9.0000E+01  9.0000E+01  9.0000E+01  0.0000E+00  4.9647E+01
 ----------------------------------------------------------------------------------------------------------------------------------
 ----------------------------------------------------------------------------------------------------------------------------------

          step     eng_tot    temp_tot     eng_cfg     eng_src     eng_cou     eng_bnd     eng_ang     eng_dih     eng_tet
      time(ps)      eng_pv    temp_rot     vir_cfg     vir_src     vir_cou     vir_bnd     vir_ang     vir_con     vir_tet
      cpu  (s)      volume    temp_shl     eng_shl     vir_shl       alpha        beta       gamma     vir_pmf       press

 ----------------------------------------------------------------------------------------------------------------------------------
          6400 -1.1993E+06  6.8574E+02 -1.2019E+06  2.9031E+05 -1.4922E+06  0.0000E+00  3.8568E-03  0.0000E+00  0.0000E+00
       6.40000 -1.1826E+06  1.7195E+03 -4.5556E+04 -1.5367E+06  1.4913E+06  0.0000E+00 -3.7322E-02  0.0000E+00  0.0000E+00
        50.881  5.5682E+03  0.0000E+00  0.0000E+00  0.0000E+00  9.0000E+01  9.0000E+01  9.0000E+01  0.0000E+00  4.9501E+01

       rolling -1.1993E+06  6.6983E+02 -1.2018E+06  2.8992E+05 -1.4918E+06  0.0000E+00  3.8954E-03  0.0000E+00  0.0000E+00
      averages -1.1831E+06  2.4582E+03 -4.4284E+04 -1.5351E+06  1.4909E+06  0.0000E+00 -3.7681E-02  0.0000E+00  0.0000E+00
                5.5682E+03  0.0000E+00  0.0000E+00  0.0000E+00  9.0000E+01  9.0000E+01  9.0000E+01  0.0000E+00  4.8123E+01
 ----------------------------------------------------------------------------------------------------------------------------------
          6500 -1.1993E+06  6.4089E+02 -1.2017E+06  2.8867E+05 -1.4903E+06  0.0000E+00  4.0696E-03  0.0000E+00  0.0000E+00
       6.50000 -1.1843E+06  4.6706E+02 -4.0574E+04 -1.5300E+06  1.4895E+06  0.0000E+00 -3.9454E-02  0.0000E+00  0.0000E+00
        51.534  5.5682E+03  0.0000E+00  0.0000E+00  0.0000E+00  9.0000E+01  9.0000E+01  9.0000E+01  0.0000E+00  4.4327E+01

       rolling -1.1993E+06  6.7359E+02 -1.2018E+06  2.8933E+05 -1.4911E+06  0.0000E+00  3.9495E-03  0.0000E+00  0.0000E+00
      averages -1.1836E+06  6.5928E+02 -4.2582E+04 -1.5328E+06  1.4903E+06  0.0000E+00 -3.8232E-02  0.0000E+00  0.0000E+00
                5.5682E+03  0.0000E+00  0.0000E+00  0.0000E+00  9.0000E+01  9.0000E+01  9.0000E+01  0.0000E+00  4.6523E+01
 ----------------------------------------------------------------------------------------------------------------------------------
          6600 -1.1993E+06  6.9147E+02 -1.2019E+06  2.8950E+05 -1.4914E+06  0.0000E+00  3.9462E-03  0.0000E+00  0.0000E+00
       6.60000 -1.1834E+06  9.3647E+02 -4.2961E+04 -1.5334E+06  1.4905E+06  0.0000E+00 -3.8248E-02  0.0000E+00  0.0000E+00
        52.187  5.5682E+03  0.0000E+00  0.0000E+00  0.0000E+00  9.0000E+01  9.0000E+01  9.0000E+01  0.0000E+00  4.7015E+01

       rolling -1.1993E+06  6.7436E+02 -1.2018E+06  2.8933E+05 -1.4911E+06  0.0000E+00  4.0535E-03  0.0000E+00  0.0000E+00
      averages -1.1836E+06  8.7269E+02 -4.2467E+04 -1.5327E+06  1.4903E+06  0.0000E+00 -3.9223E-02  0.0000E+00  0.0000E+00
                5.5682E+03  0.0000E+00  0.0000E+00  0.0000E+00  9.0000E+01  9.0000E+01  9.0000E+01  0.0000E+00  4.6410E+01
[...]
       778.639  5.5682E+03  0.0000E+00  0.0000E+00  0.0000E+00  9.0000E+01  9.0000E+01  9.0000E+01  0.0000E+00  4.8818E+01

       rolling -1.1993E+06  3.7390E+02 -1.2029E+06  2.9111E+05 -1.4940E+06  0.0000E+00  3.1692E-03  0.0000E+00  0.0000E+00
      averages -1.1846E+06  1.1639E+02 -4.7895E+04 -1.5410E+06  1.4931E+06  0.0000E+00 -3.0649E-02  0.0000E+00  0.0000E+00
                5.5682E+03  0.0000E+00  0.0000E+00  0.0000E+00  9.0000E+01  9.0000E+01  9.0000E+01  0.0000E+00  4.9630E+01
 ----------------------------------------------------------------------------------------------------------------------------------
         98800 -1.1993E+06  3.2588E+02 -1.2030E+06  2.9236E+05 -1.4954E+06  0.0000E+00  3.1214E-03  0.0000E+00  0.0000E+00
      98.80000 -1.1837E+06  1.1180E+02 -5.1974E+04 -1.5465E+06  1.4945E+06  0.0000E+00 -3.0177E-02  0.0000E+00  0.0000E+00
       779.722  5.5682E+03  0.0000E+00  0.0000E+00  0.0000E+00  9.0000E+01  9.0000E+01  9.0000E+01  0.0000E+00  5.3292E+01

       rolling -1.1993E+06  3.4312E+02 -1.2030E+06  2.9155E+05 -1.4945E+06  0.0000E+00  3.0881E-03  0.0000E+00  0.0000E+00
      averages -1.1845E+06  1.6499E+02 -4.9301E+04 -1.5430E+06  1.4937E+06  0.0000E+00 -2.9859E-02  0.0000E+00  0.0000E+00
                5.5682E+03  0.0000E+00  0.0000E+00  0.0000E+00  9.0000E+01  9.0000E+01  9.0000E+01  0.0000E+00  5.0790E+01
 ----------------------------------------------------------------------------------------------------------------------------------
         98900 -1.1993E+06  2.9400E+02 -1.2031E+06  2.9253E+05 -1.4956E+06  0.0000E+00  2.9987E-03  0.0000E+00  0.0000E+00
      98.90000 -1.1839E+06  4.0030E+01 -5.2395E+04 -1.5472E+06  1.4948E+06  0.0000E+00 -2.8945E-02  0.0000E+00  0.0000E+00
       780.805  5.5682E+03  0.0000E+00  0.0000E+00  0.0000E+00  9.0000E+01  9.0000E+01  9.0000E+01  0.0000E+00  5.3481E+01

       rolling -1.1993E+06  3.1733E+02 -1.2031E+06  2.9201E+05 -1.4951E+06  0.0000E+00  3.0355E-03  0.0000E+00  0.0000E+00
      averages -1.1843E+06  7.6776E+01 -5.0739E+04 -1.5450E+06  1.4942E+06  0.0000E+00 -2.9334E-02  0.0000E+00  0.0000E+00
                5.5682E+03  0.0000E+00  0.0000E+00  0.0000E+00  9.0000E+01  9.0000E+01  9.0000E+01  0.0000E+00  5.2021E+01
 ----------------------------------------------------------------------------------------------------------------------------------
         99000 -1.1993E+06  2.8740E+02 -1.2033E+06  2.9194E+05 -1.4952E+06  0.0000E+00  3.1027E-03  0.0000E+00  0.0000E+00
      99.00000 -1.1847E+06  9.5920E+01 -5.0611E+04 -1.5449E+06  1.4943E+06  0.0000E+00 -2.9966E-02  0.0000E+00  0.0000E+00
       781.885  5.5682E+03  0.0000E+00  0.0000E+00  0.0000E+00  9.0000E+01  9.0000E+01  9.0000E+01  0.0000E+00  5.1683E+01

       rolling -1.1993E+06  2.8592E+02 -1.2032E+06  2.9172E+05 -1.4949E+06  0.0000E+00  2.9024E-03  0.0000E+00  0.0000E+00
      averages -1.1849E+06  3.8345E+01 -4.9834E+04 -1.5438E+06  1.4940E+06  0.0000E+00 -2.8053E-02  0.0000E+00  0.0000E+00
                5.5682E+03  0.0000E+00  0.0000E+00  0.0000E+00  9.0000E+01  9.0000E+01  9.0000E+01  0.0000E+00  5.0912E+01
 ----------------------------------------------------------------------------------------------------------------------------------
         99100 -1.1993E+06  2.3697E+02 -1.2033E+06  2.9326E+05 -1.4965E+06  0.0000E+00  2.9403E-03  0.0000E+00  0.0000E+00
      99.10000 -1.1835E+06  1.9941E+02 -5.5024E+04 -1.5507E+06  1.4956E+06  0.0000E+00 -2.8410E-02  0.0000E+00  0.0000E+00
       782.973  5.5682E+03  0.0000E+00  0.0000E+00  0.0000E+00  9.0000E+01  9.0000E+01  9.0000E+01  0.0000E+00  5.5653E+01

       rolling -1.1993E+06  2.6300E+02 -1.2033E+06  2.9228E+05 -1.4956E+06  0.0000E+00  2.8432E-03  0.0000E+00  0.0000E+00
      averages -1.1845E+06  1.7406E+02 -5.1707E+04 -1.5464E+06  1.4947E+06  0.0000E+00 -2.7475E-02  0.0000E+00  0.0000E+00
                5.5682E+03  0.0000E+00  0.0000E+00  0.0000E+00  9.0000E+01  9.0000E+01  9.0000E+01  0.0000E+00  5.2583E+01
 ----------------------------------------------------------------------------------------------------------------------------------
 ----------------------------------------------------------------------------------------------------------------------------------

          step     eng_tot    temp_tot     eng_cfg     eng_src     eng_cou     eng_bnd     eng_ang     eng_dih     eng_tet
      time(ps)      eng_pv    temp_rot     vir_cfg     vir_src     vir_cou     vir_bnd     vir_ang     vir_con     vir_tet
      cpu  (s)      volume    temp_shl     eng_shl     vir_shl       alpha        beta       gamma     vir_pmf       press

 ----------------------------------------------------------------------------------------------------------------------------------
         99200 -1.1993E+06  2.3448E+02 -1.2034E+06  2.9215E+05 -1.4956E+06  0.0000E+00  2.7205E-03  0.0000E+00  0.0000E+00
      99.20000 -1.1849E+06  2.5136E+02 -5.1262E+04 -1.5459E+06  1.4947E+06  0.0000E+00 -2.6284E-02  0.0000E+00  0.0000E+00
       784.049  5.5682E+03  0.0000E+00  0.0000E+00  0.0000E+00  9.0000E+01  9.0000E+01  9.0000E+01  0.0000E+00  5.1943E+01

       rolling -1.1993E+06  2.4160E+02 -1.2034E+06  2.9214E+05 -1.4955E+06  0.0000E+00  2.7857E-03  0.0000E+00  0.0000E+00
      averages -1.1848E+06  2.3772E+02 -5.1234E+04 -1.5459E+06  1.4946E+06  0.0000E+00 -2.6923E-02  0.0000E+00  0.0000E+00
                5.5682E+03  0.0000E+00  0.0000E+00  0.0000E+00  9.0000E+01  9.0000E+01  9.0000E+01  0.0000E+00  5.1967E+01
 ----------------------------------------------------------------------------------------------------------------------------------
         99300 -1.1993E+06  2.0777E+02 -1.2034E+06  2.9229E+05 -1.4957E+06  0.0000E+00  2.7692E-03  0.0000E+00  0.0000E+00
      99.30000 -1.1850E+06  1.1916E+02 -5.1724E+04 -1.5466E+06  1.4949E+06  0.0000E+00 -2.6755E-02  0.0000E+00  0.0000E+00
       785.128  5.5682E+03  0.0000E+00  0.0000E+00  0.0000E+00  9.0000E+01  9.0000E+01  9.0000E+01  0.0000E+00  5.2211E+01

       rolling -1.1993E+06  2.2086E+02 -1.2034E+06  2.9227E+05 -1.4957E+06  0.0000E+00  2.7307E-03  0.0000E+00  0.0000E+00
      averages -1.1849E+06  1.7640E+02 -5.1625E+04 -1.5464E+06  1.4948E+06  0.0000E+00 -2.6381E-02  0.0000E+00  0.0000E+00
                5.5682E+03  0.0000E+00  0.0000E+00  0.0000E+00  9.0000E+01  9.0000E+01  9.0000E+01  0.0000E+00  5.2205E+01
 ----------------------------------------------------------------------------------------------------------------------------------
         99400 -1.1993E+06  1.9639E+02 -1.2035E+06  2.9300E+05 -1.4965E+06  0.0000E+00  2.5868E-03  0.0000E+00  0.0000E+00
      99.40000 -1.1843E+06  4.8871E+01 -5.4046E+04 -1.5497E+06  1.4957E+06  0.0000E+00 -2.4991E-02  0.0000E+00  0.0000E+00
       786.206  5.5682E+03  0.0000E+00  0.0000E+00  0.0000E+00  9.0000E+01  9.0000E+01  9.0000E+01  0.0000E+00  5.4411E+01

       rolling -1.1993E+06  2.0306E+02 -1.2035E+06  2.9276E+05 -1.4962E+06  0.0000E+00  2.7201E-03  0.0000E+00  0.0000E+00
      averages -1.1845E+06  8.6223E+01 -5.3210E+04 -1.5486E+06  1.4954E+06  0.0000E+00 -2.6276E-02  0.0000E+00  0.0000E+00
                5.5682E+03  0.0000E+00  0.0000E+00  0.0000E+00  9.0000E+01  9.0000E+01  9.0000E+01  0.0000E+00  5.3637E+01
 ----------------------------------------------------------------------------------------------------------------------------------
         99500 -1.1993E+06  1.7192E+02 -1.2035E+06  2.9262E+05 -1.4962E+06  0.0000E+00  2.6720E-03  0.0000E+00  0.0000E+00
      99.50000 -1.1850E+06  8.2700E+00 -5.2653E+04 -1.5479E+06  1.4953E+06  0.0000E+00 -2.5815E-02  0.0000E+00  0.0000E+00
       787.276  5.5682E+03  0.0000E+00  0.0000E+00  0.0000E+00  9.0000E+01  9.0000E+01  9.0000E+01  0.0000E+00  5.2872E+01

       rolling -1.1993E+06  1.8655E+02 -1.2035E+06  2.9262E+05 -1.4962E+06  0.0000E+00  2.6723E-03  0.0000E+00  0.0000E+00
      averages -1.1849E+06  2.1330E+01 -5.2722E+04 -1.5480E+06  1.4953E+06  0.0000E+00 -2.5819E-02  0.0000E+00  0.0000E+00
                5.5682E+03  0.0000E+00  0.0000E+00  0.0000E+00  9.0000E+01  9.0000E+01  9.0000E+01  0.0000E+00  5.3042E+01
 ----------------------------------------------------------------------------------------------------------------------------------
         99600 -1.1993E+06  1.6354E+02 -1.2036E+06  2.9314E+05 -1.4968E+06  0.0000E+00  2.7279E-03  0.0000E+00  0.0000E+00
      99.60000 -1.1845E+06  1.8671E+01 -5.4408E+04 -1.5503E+06  1.4959E+06  0.0000E+00 -2.6331E-02  0.0000E+00  0.0000E+00
       788.351  5.5682E+03  0.0000E+00  0.0000E+00  0.0000E+00  9.0000E+01  9.0000E+01  9.0000E+01  0.0000E+00  5.4533E+01

       rolling -1.1993E+06  1.7246E+02 -1.2036E+06  2.9283E+05 -1.4964E+06  0.0000E+00  2.6384E-03  0.0000E+00  0.0000E+00
      averages -1.1848E+06  1.1057E+01 -5.3403E+04 -1.5489E+06  1.4955E+06  0.0000E+00 -2.5478E-02  0.0000E+00  0.0000E+00
                5.5682E+03  0.0000E+00  0.0000E+00  0.0000E+00  9.0000E+01  9.0000E+01  9.0000E+01  0.0000E+00  5.3612E+01
 ----------------------------------------------------------------------------------------------------------------------------------
         99700 -1.1993E+06  1.5920E+02 -1.2037E+06  2.9297E+05 -1.4966E+06  0.0000E+00  2.5552E-03  0.0000E+00  0.0000E+00
      99.70000 -1.1847E+06  1.2885E+01 -5.3977E+04 -1.5497E+06  1.4958E+06  0.0000E+00 -2.4695E-02  0.0000E+00  0.0000E+00
       789.425  5.5682E+03  0.0000E+00  0.0000E+00  0.0000E+00  9.0000E+01  9.0000E+01  9.0000E+01  0.0000E+00  5.4081E+01

       rolling -1.1993E+06  1.6105E+02 -1.2036E+06  2.9300E+05 -1.4966E+06  0.0000E+00  2.5943E-03  0.0000E+00  0.0000E+00
      averages -1.1847E+06  1.9122E+01 -5.3965E+04 -1.5497E+06  1.4958E+06  0.0000E+00 -2.5057E-02  0.0000E+00  0.0000E+00
                5.5682E+03  0.0000E+00  0.0000E+00  0.0000E+00  9.0000E+01  9.0000E+01  9.0000E+01  0.0000E+00  5.4082E+01
 ----------------------------------------------------------------------------------------------------------------------------------
         99800 -1.1993E+06  1.5277E+02 -1.2037E+06  2.9260E+05 -1.4963E+06  0.0000E+00  2.4860E-03  0.0000E+00  0.0000E+00
      99.80000 -1.1853E+06  1.2499E+02 -5.2646E+04 -1.5481E+06  1.4954E+06  0.0000E+00 -2.4012E-02  0.0000E+00  0.0000E+00
       790.496  5.5682E+03  0.0000E+00  0.0000E+00  0.0000E+00  9.0000E+01  9.0000E+01  9.0000E+01  0.0000E+00  5.2727E+01

       rolling -1.1993E+06  1.5127E+02 -1.2037E+06  2.9303E+05 -1.4967E+06  0.0000E+00  2.5277E-03  0.0000E+00  0.0000E+00
      averages -1.1847E+06  6.7440E+01 -5.4090E+04 -1.5499E+06  1.4958E+06  0.0000E+00 -2.4421E-02  0.0000E+00  0.0000E+00
                5.5682E+03  0.0000E+00  0.0000E+00  0.0000E+00  9.0000E+01  9.0000E+01  9.0000E+01  0.0000E+00  5.4134E+01
 ----------------------------------------------------------------------------------------------------------------------------------
         99900 -1.1993E+06  1.4171E+02 -1.2037E+06  2.9285E+05 -1.4966E+06  0.0000E+00  2.5285E-03  0.0000E+00  0.0000E+00
      99.90000 -1.1851E+06  8.0906E+01 -5.3430E+04 -1.5491E+06  1.4957E+06  0.0000E+00 -2.4422E-02  0.0000E+00  0.0000E+00
       791.564  5.5682E+03  0.0000E+00  0.0000E+00  0.0000E+00  9.0000E+01  9.0000E+01  9.0000E+01  0.0000E+00  5.3418E+01

       rolling -1.1993E+06  1.4015E+02 -1.2037E+06  2.9298E+05 -1.4967E+06  0.0000E+00  2.5404E-03  0.0000E+00  0.0000E+00
      averages -1.1849E+06  1.1604E+02 -5.3891E+04 -1.5497E+06  1.4958E+06  0.0000E+00 -2.4534E-02  0.0000E+00  0.0000E+00
                5.5682E+03  0.0000E+00  0.0000E+00  0.0000E+00  9.0000E+01  9.0000E+01  9.0000E+01  0.0000E+00  5.3859E+01
 ----------------------------------------------------------------------------------------------------------------------------------
 ----------------------------------------------------------------------------------------------------------------------------------

          step     eng_tot    temp_tot     eng_cfg     eng_src     eng_cou     eng_bnd     eng_ang     eng_dih     eng_tet
      time(ps)      eng_pv    temp_rot     vir_cfg     vir_src     vir_cou     vir_bnd     vir_ang     vir_con     vir_tet
      cpu  (s)      volume    temp_shl     eng_shl     vir_shl       alpha        beta       gamma     vir_pmf       press

 ----------------------------------------------------------------------------------------------------------------------------------
        100000 -1.1993E+06  1.2617E+02 -1.2037E+06  2.9240E+05 -1.4961E+06  0.0000E+00  2.4714E-03  0.0000E+00  0.0000E+00
     100.00000 -1.1856E+06  8.7388E+01 -5.2034E+04 -1.5473E+06  1.4953E+06  0.0000E+00 -2.3894E-02  0.0000E+00  0.0000E+00
       792.634  5.5682E+03  0.0000E+00  0.0000E+00  0.0000E+00  9.0000E+01  9.0000E+01  9.0000E+01  0.0000E+00  5.1939E+01

       rolling -1.1993E+06  1.3406E+02 -1.2037E+06  2.9294E+05 -1.4967E+06  0.0000E+00  2.5202E-03  0.0000E+00  0.0000E+00
      averages -1.1850E+06  5.8549E+01 -5.3738E+04 -1.5495E+06  1.4958E+06  0.0000E+00 -2.4342E-02  0.0000E+00  0.0000E+00
                5.5682E+03  0.0000E+00  0.0000E+00  0.0000E+00  9.0000E+01  9.0000E+01  9.0000E+01  0.0000E+00  5.3667E+01
 ----------------------------------------------------------------------------------------------------------------------------------


 run terminating...  elapsed cpu time:      792.637 sec, job time:   100000.000 sec, close time:      100.000 sec



 sample of final configuration on node zero

        i       x(i)        y(i)        z(i)       vx(i)       vy(i)       vz(i)       fx(i)       fy(i)       fz(i)


        1  1.6518E+00 -1.2860E+00 -4.7173E+00  9.3318E-01  2.4597E+00 -1.6740E+00 -5.5982E+03  2.3843E+03  2.6048E+03
       16  2.5989E+00  8.8550E+00 -6.3516E+00 -1.7605E+00  3.0408E+00 -1.4329E+00 -1.5144E+04  2.5966E+03 -2.6432E+03
       31 -6.1382E+00  2.4866E+00 -4.1404E+00 -2.3915E-01 -2.6723E-01  8.4994E-01 -3.6976E+03 -1.0637E+04  4.6563E+03
       46 -3.6733E+00  6.5845E+00 -2.3860E+00 -1.0306E+00 -1.7854E+00 -3.7929E-01 -4.9190E+03 -1.0108E+04  2.6374E+02
       61  7.7530E+00 -1.2881E+00  2.2202E-01  5.5462E-01 -1.2570E+00  2.2884E+00 -6.6578E+03 -3.5246E+03 -1.3914E+03
       76  8.6517E+00 -6.7249E+00  2.3115E+00  7.7974E-01  6.4051E-01 -3.5931E+00 -7.3830E+03  8.1396E+03  5.1507E+03
       91 -8.7246E+00 -2.6228E+00  2.5475E+00 -3.1031E+00  4.6672E-01  4.2053E-01 -6.1059E+03  6.0974E+03 -2.8722E+03
      106 -6.0409E+00  8.7959E+00 -3.9461E-01  1.9819E+00  3.0905E+00  3.0178E+00  6.7777E+02  1.0055E+03 -2.2618E+03
      121  2.7436E+00  3.0281E+00 -3.5001E+00  1.1897E+00 -6.6720E+00 -1.3499E+00  4.7239E+03 -3.0701E+03  8.9737E+02
      136  8.2149E+00  7.1535E+00 -1.0871E+00 -5.2980E-01 -3.6827E+00  3.2050E+00  3.6812E+02 -3.1406E+03  4.6729E+03
      151 -1.2986E+00  9.6497E-01 -4.1522E+00  7.4008E-01  2.3376E+00  3.8159E+00 -6.4399E+03  1.6264E+03 -2.5318E+03
      166 -3.8613E+00 -7.7204E+00 -1.4177E+00 -1.9488E-01 -4.0524E+00  7.3314E-01  1.9821E+03 -6.0809E+03 -5.1293E+03
      181 -1.0004E+01  3.0520E+00 -2.6994E+00 -4.5609E+00  1.7665E+00  1.6577E-01 -2.8548E+03 -7.0035E+03 -3.3427E+03
      196  7.5920E+00  8.8763E+00  3.5269E+00  4.3625E+00 -1.2023E+00 -1.8415E+00 -3.7573E+03  3.8730E+03 -6.6367E+02
      211 -7.7816E+00  9.4818E-01  3.7187E+00 -1.9226E+00  4.0222E-01  2.6531E+00  1.0233E+04  4.3683E+03  2.4301E+02
      226 -4.0849E+00  6.6151E+00  6.4465E+00  2.0261E+00 -5.5271E+00  1.2825E+00  9.2899E+03 -1.4041E+03 -3.0210E+03
      241  6.2548E+00 -1.1021E+00  3.9686E+00  7.0072E-01 -1.5267E+00 -7.0192E-01  4.2698E+03 -1.8603E+04  1.4875E+02
      256  8.1915E+00  9.8826E+00  1.3477E+00 -1.0442E+00 -7.1751E-01  1.1953E+00 -3.9141E+03  7.2529E+03 -2.2119E+03
      271 -6.0107E+00 -2.5680E+00  5.6097E+00 -1.3327E-01  1.3305E+00 -1.0648E+00 -4.5337E+03  8.1624E+03  6.6912E+03
      286 -6.0304E+00  5.0121E+00  6.3364E+00  2.7549E+00 -3.3857E+00 -2.5408E+00  7.5340E+03 -2.0995E+04 -4.2105E+02


 VNL skipping run statistics - skips per timestep: average   10.11 minimum    4 maximum   29


 run terminated after   100000 steps (   100.000 ps), final averages calculated over   100000 steps (   100.000 ps).


 ----------------------------------------------------------------------------------------------------------------------------------

          step     eng_tot    temp_tot     eng_cfg     eng_src     eng_cou     eng_bnd     eng_ang     eng_dih     eng_tet
      time(ps)      eng_pv    temp_rot     vir_cfg     vir_src     vir_cou     vir_bnd     vir_ang     vir_con     vir_tet
      cpu  (s)      volume    temp_shl     eng_shl     vir_shl       alpha        beta       gamma     vir_pmf       press

 ----------------------------------------------------------------------------------------------------------------------------------
        100000 -1.1993E+06  3.0157E+02 -1.2031E+06  2.9188E+05 -1.4950E+06  0.0000E+00  2.9726E-03  0.0000E+00  0.0000E+00
     100.00000 -1.1845E+06  3.2058E+02 -5.0425E+04 -1.5445E+06  1.4941E+06  0.0000E+00 -2.8733E-02  0.0000E+00  0.0000E+00
       792.643  5.5682E+03  0.0000E+00  0.0000E+00  0.0000E+00  9.0000E+01  9.0000E+01  9.0000E+01  0.0000E+00  5.1595E+01

       r.m.s.   4.0870E+00  1.9352E+02  7.0088E+02  1.2785E+03  1.8874E+03  0.0000E+00  5.2249E-04  0.0000E+00  0.0000E+00
      fluctu-   1.1500E+03  3.9394E+02  4.1093E+03  5.9656E+03  1.8801E+03  0.0000E+00  5.0661E-03  0.0000E+00  0.0000E+00
      ations    0.0000E+00  0.0000E+00  0.0000E+00  0.0000E+00  0.0000E+00  0.0000E+00  0.0000E+00  0.0000E+00  3.0842E+00
 ----------------------------------------------------------------------------------------------------------------------------------

 Extended energy:         2.7059E+03      r.m.s. fluctuations:    1.3915E+03

 ----------------------------------------------------------------------------------------------------------------------------------


            Approximate 3D Diffusion Coefficients and square root of MSDs

            atom         DC (10^-9 m^2 s^-1)   Sqrt[MSD] (Ang)

            Si                0.0000E+00          2.7029E-01
            O                 0.0000E+00          3.3347E-01
            C                 0.0000E+00          4.3184E+00
            H                 0.0000E+00          5.2026E+00


                Average pressure tensor  (katms)                              r.m.s. fluctuations

           4.9024E+01 -3.1503E-03  1.9468E-03                          4.5303E+00  1.5517E+00  2.5764E+00
          -3.1503E-03  5.3448E+01 -4.4991E-02                          1.5517E+00  4.5213E+00  2.4782E+00
           1.9468E-03 -4.4991E-02  5.2314E+01                          2.5764E+00  2.4782E+00  4.0861E+00

            trace/3    5.1595E+01



 time elapsed since job start:      792.643 sec



 *************************************************************************************************************************
 **************                                                                                             **************
 **************  Thank you for using the DL_POLY_4 package in your work.  Please, acknowledge our efforts   **************
 **************                                                                                             **************
 **************  by including the following references when publishing data obtained using DL_POLY_4:       **************
 **************                                                                                             **************
 **************  I.T. Todorov, W. Smith, K. Trachenko & M.T. Dove, `J. Mater. Chem.', 16, 1911-1918 (2006)  **************
 **************  I.J. Bush, I.T. Todorov & W. Smith, `Comp. Phys. Commun.', 175, 323-329 (2006)             **************
 **************                                                                                             **************
 *************************************************************************************************************************

